/*--------------------------------*- C++ -*----------------------------------*\
  =========                 |
  \\      /  F ield         | OpenFOAM: The Open Source CFD Toolbox
   \\    /   O peration     | Website:  https://openfoam.org
    \\  /    A nd           | Version:  8
     \\/     M anipulation  |
\*---------------------------------------------------------------------------*/
FoamFile
{
    version     2.0;
    format      ascii;
    class       volScalarField;
    location    "0";
    object      k;
}
// * * * * * * * * * * * * * * * * * * * * * * * * * * * * * * * * * * * * * //

dimensions      [0 2 -2 0 0 0 0];

internalField   nonuniform List<scalar> 
267833
(
0.0107818
0.01078
0.0107803
0.0107802
0.0107805
0.0106599
0.010655
0.0106559
0.010658
0.0106573
0.0107878
0.0107857
0.0107861
0.010786
0.0107864
0.0107854
0.0107849
0.0107826
0.010783
0.0107836
0.0107836
0.0107825
0.0107833
0.0107802
0.0107817
0.0107809
0.0107809
0.01078
0.010783
0.0107807
0.0107811
0.0107816
0.0107815
0.0107805
0.0106679
0.0106623
0.0106632
0.0106656
0.0106647
0.010661
0.0106617
0.0106575
0.0106583
0.0106601
0.0106595
0.0106569
0.0106585
0.0106556
0.0106544
0.0106573
0.0106569
0.0106536
0.0106594
0.0106552
0.0106559
0.0106577
0.0106572
0.0106546
0.0106315
0.0106365
0.0106356
0.0106333
0.0106338
0.0106369
0.0106331
0.0106367
0.0106361
0.0106345
0.0106351
0.0106374
0.010635
0.0106361
0.0106357
0.0106348
0.0106352
0.0106368
0.0106308
0.0106344
0.0106338
0.0106322
0.0106328
0.0106353
0.0107796
0.0107801
0.0107791
0.0107803
0.0107791
0.0107794
0.0107786
0.0107817
0.0107805
0.0107849
0.0107839
0.0106542
0.0106595
0.0106547
0.0106555
0.0106577
0.010657
0.0106539
0.0106583
0.010654
0.0106548
0.0106565
0.010656
0.0106534
0.0106566
0.0106535
0.0106531
0.0106543
0.010654
0.0106522
0.0106596
0.0106553
0.0106561
0.0106579
0.0106573
0.0106547
0.0106656
0.0106599
0.0106608
0.0106633
0.0106625
0.010659
0.0107804
0.0107802
0.0107805
0.0107803
0.0107819
0.0107846
0.0106567
0.0106555
0.0106553
0.0106545
0.0106581
0.0106633
0.010786
0.0107865
0.0107854
0.0107838
0.0107836
0.0107825
0.0107824
0.0107809
0.0107801
0.0107818
0.0107815
0.0107806
0.0107803
0.0107806
0.0107796
0.0107798
0.0107801
0.0107791
0.0106651
0.0106633
0.0106601
0.0106587
0.0106558
0.0106564
0.0106579
0.0106567
0.0106582
0.0106568
0.0106578
0.0106564
0.0106323
0.0106335
0.0106342
0.0106352
0.0106361
0.0106355
0.0106322
0.0106333
0.0106298
0.0106312
0.0106309
0.0107865
0.0107835
0.0107821
0.0107815
0.0106638
0.010659
0.0106566
0.0106567
0.0106342
0.0106355
0.0106355
0.0106333
0.0107802
0.0107816
0.010785
0.0106555
0.0106545
0.0106568
0.0106618
0.0107806
0.0107801
0.0106568
0.0106564
0.0107801
0.0106312
0.00946578
0.0094641
0.00946429
0.00946466
0.00946458
0.00946391
0.00946452
0.00946548
0.00946388
0.00946406
0.00946445
0.00946438
0.00946378
0.00946484
0.00946345
0.0094636
0.00946393
0.00946415
0.00946342
0.00946577
0.00946423
0.00946443
0.0094649
0.00946487
0.00946428
0.00946821
0.00946624
0.00946651
0.00946707
0.00946703
0.00946625
0.00934651
0.00934636
0.00934637
0.00934646
0.00934636
0.00934624
0.00934631
0.0093465
0.00934642
0.00934643
0.00934646
0.00934641
0.00934632
0.00934668
0.00934641
0.00934667
0.00934647
0.00934667
0.00934632
0.00934688
0.0093468
0.00934682
0.00934688
0.00934685
0.00934677
0.00934738
0.00934723
0.00934726
0.00934745
0.00934736
0.00934724
0.0092116
0.00921082
0.00921169
0.00921169
0.00921171
0.00921166
0.00921162
0.00921099
0.00921172
0.00921172
0.00921185
0.0092117
0.00921163
0.00921097
0.00921183
0.00921183
0.00921185
0.0092118
0.00921177
0.00920973
0.00921102
0.009211
0.00921106
0.00921099
0.00921099
0.00947101
0.00946886
0.00946913
0.00946967
0.00946957
0.00946869
0.00946682
0.00946536
0.00946556
0.00946608
0.00946605
0.00946544
0.00946513
0.00946379
0.00946395
0.0094652
0.00946435
0.0094639
0.00946561
0.0094641
0.00946429
0.00946474
0.00946472
0.00946415
0.00946471
0.00946575
0.00946409
0.00946429
0.00946469
0.00946462
0.00946398
0.00946458
0.00934777
0.00934766
0.00934768
0.00934781
0.00934777
0.00934768
0.00934736
0.0093473
0.00934733
0.00934741
0.00934739
0.00934732
0.00934716
0.00934678
0.0093468
0.00934687
0.00934684
0.00934674
0.0093468
0.00934674
0.00934676
0.00934681
0.00934678
0.0093467
0.00934677
0.00934661
0.00934646
0.00934648
0.00934657
0.00934648
0.00934637
0.00934645
0.00921165
0.00946944
0.00946602
0.00946436
0.00934777
0.0093479
0.00934783
0.00934775
0.0093474
0.00934749
0.00934747
0.0093474
0.00934723
0.00934692
0.0093469
0.00934681
0.00934685
0.00934683
0.00934677
0.00921104
0.00921111
0.00921103
0.00921106
0.00921192
0.00921196
0.00921192
0.00921192
0.00921193
0.00921185
0.00921192
0.0092119
0.00921176
0.00921179
0.00921174
0.00921175
0.00905074
0.00905301
0.00905312
0.00905298
0.00905288
0.00934657
0.00934648
0.0093464
0.00921171
0.00921163
0.00921163
0.0101071
0.0101071
0.0101071
0.0101072
0.0101078
0.0101079
0.0101072
0.0101074
0.010108
0.0101081
0.0101081
0.0101082
0.010109
0.0101091
0.0101092
0.0101093
0.0100243
0.0100257
0.0100255
0.0100251
0.0100259
0.0100263
0.0100262
0.0100265
0.0100253
0.0100266
0.0100264
0.0100261
0.0100251
0.0100266
0.0100263
0.0100261
0.00987814
0.00987809
0.00987723
0.00987885
0.00987756
0.00987779
0.00987824
0.00987807
0.00987723
0.00987822
0.0098778
0.00987731
0.00987824
0.00987751
0.00987686
0.00987985
0.00987852
0.00987874
0.00987918
0.009879
0.00987814
0.00988176
0.00988029
0.00988056
0.00988086
0.00988082
0.00987987
0.00978688
0.00978704
0.00978821
0.00978648
0.00978822
0.00978793
0.00978728
0.00978749
0.00978854
0.00978757
0.00978895
0.00978874
0.00978828
0.00978842
0.00978914
0.00978653
0.0097883
0.009788
0.00978731
0.00978747
0.00978849
0.0097847
0.00978682
0.00978642
0.00978556
0.00978551
0.00978673
0.00963656
0.00963652
0.00963738
0.00963726
0.00963724
0.00963612
0.00963635
0.00963637
0.00963653
0.00963657
0.00963663
0.00963565
0.0096345
0.00963454
0.00963612
0.00963621
0.00963635
0.00963352
0.00963384
0.00963384
0.00963389
0.00963379
0.00963374
0.00963096
0.009631
0.00963093
0.00963058
0.0096302
0.00962988
0.0101081
0.0101071
0.0101072
0.0101072
0.0101072
0.0101068
0.0101069
0.0101069
0.0101069
0.0100269
0.0100267
0.0100274
0.010027
0.0100271
0.0100269
0.0100252
0.0100266
0.0100264
0.010026
0.0100242
0.0100254
0.0100252
0.010025
0.0100239
0.0100251
0.0100249
0.0100246
0.00988257
0.00988117
0.00988148
0.00988188
0.00988191
0.00988104
0.00988089
0.00987959
0.00987982
0.00988028
0.00988014
0.00987935
0.0098792
0.0098781
0.00987901
0.0098786
0.00987844
0.00987866
0.00987975
0.00987846
0.00987868
0.00987909
0.00987891
0.00987808
0.00987914
0.00987792
0.00987816
0.00987847
0.00987841
0.00987754
0.00987878
0.00987757
0.00987782
0.00978379
0.00978508
0.00978464
0.00978317
0.00978271
0.00978388
0.00978652
0.00978822
0.00978792
0.00978705
0.00978706
0.00978801
0.00978756
0.00978887
0.00978866
0.009788
0.00978841
0.00978911
0.00978651
0.00978828
0.00978798
0.00978729
0.00978746
0.00978849
0.00978605
0.00978785
0.00978752
0.0097869
0.00978706
0.00978822
0.00978603
0.00978782
0.00978749
0.00962404
0.00962295
0.00962247
0.00962008
0.00961921
0.00961865
0.00962905
0.00962902
0.00962894
0.0096284
0.00962778
0.00962734
0.00963304
0.00963041
0.00963042
0.00963338
0.00963332
0.009629
0.00963398
0.00963419
0.00963422
0.00963434
0.00963429
0.00963418
0.0096362
0.00963624
0.00963626
0.00963667
0.00963696
0.00963696
0.00963698
0.0101915
0.0101913
0.0101914
0.0101911
0.0101898
0.0101894
0.0101895
0.0101897
0.0101879
0.0101875
0.0101876
0.0101879
0.0101878
0.0101874
0.0101875
0.0101877
0.0101099
0.01011
0.0101101
0.0101102
0.0101092
0.0101093
0.0101093
0.0101094
0.0101089
0.0101091
0.0101082
0.0101084
0.0101079
0.010108
0.010108
0.0100257
0.0100272
0.0100263
0.0100276
0.0100269
0.010028
0.0102707
0.0102695
0.0102695
0.0102687
0.0102681
0.0102673
0.0102674
0.0102673
0.0101868
0.0101867
0.0101867
0.0101865
0.0101865
0.0101864
0.0101865
0.0106285
0.0106325
0.0106318
0.0106298
0.0106306
0.0105254
0.0105266
0.0105263
0.0105261
0.0105261
0.010431
0.0104312
0.0104311
0.0104311
0.0104316
0.0104318
0.0104317
0.0103453
0.0103454
0.0103454
0.0103449
0.0103457
0.0103458
0.0103458
0.0102656
0.0102654
0.0102655
0.0102653
0.0102656
0.0102653
0.0102654
0.0105251
0.010527
0.0105266
0.0105264
0.0105261
0.0105269
0.0105262
0.0105275
0.0105272
0.0105267
0.0105267
0.0105274
0.0105266
0.0105276
0.0105274
0.0105271
0.0105272
0.0105277
0.0105255
0.0105269
0.0105266
0.0105261
0.0105263
0.0105271
0.0104204
0.0104218
0.010422
0.0104216
0.0104229
0.0104241
0.0104246
0.0104253
0.0104252
0.0104252
0.0104256
0.0104262
0.0104264
0.0104289
0.0104264
0.0104286
0.0104267
0.0104291
0.0104293
0.0104295
0.0104294
0.0104292
0.0104293
0.0104295
0.0104311
0.0103431
0.0103421
0.0103416
0.0103398
0.0103433
0.0103423
0.0103422
0.0103417
0.0103433
0.0103437
0.0103436
0.0103435
0.0103445
0.0103441
0.0103441
0.010344
0.0103452
0.0102671
0.0102656
0.0102666
0.0102666
0.0102662
0.0102656
0.0102657
0.0102659
0.010187
0.0101865
0.0101866
0.0101868
0.0101869
0.0101864
0.0101865
0.0101867
0.0101881
0.0101876
0.0101877
0.0101879
0.0101896
0.0101894
0.0101895
0.0101893
0.0101862
0.0105264
0.0105254
0.0106282
0.0106323
0.0106315
0.0106295
0.0106303
0.0106332
0.0106299
0.0106334
0.0106327
0.0106311
0.0106318
0.0106342
0.0106331
0.0106357
0.0106345
0.0106343
0.0106347
0.0106355
0.010631
0.0106346
0.0106339
0.0106324
0.010633
0.0106354
0.0106289
0.0106339
0.0106331
0.0106309
0.0106317
0.0106349
0.0105255
0.0105267
0.0105264
0.0105261
0.0105262
0.0105257
0.0105269
0.0105267
0.0105262
0.0105264
0.0105273
0.0105265
0.0105275
0.0105274
0.0105269
0.010527
0.0105278
0.0105257
0.0105269
0.0105267
0.0105262
0.0105263
0.0105272
0.0105245
0.010526
0.0105257
0.0105255
0.0105254
0.0105263
0.0104318
0.0104317
0.0104312
0.0104314
0.0104313
0.0104312
0.0104312
0.0104314
0.0104298
0.0104298
0.0104312
0.010431
0.010431
0.0104313
0.0104288
0.0104291
0.010429
0.0104289
0.0104289
0.0104292
0.010429
0.010426
0.0104265
0.0104264
0.0104258
0.0104262
0.0104268
0.0104266
0.0103454
0.0103457
0.0103456
0.0103454
0.0103454
0.0103454
0.0103454
0.0103453
0.0103453
0.0103441
0.0103442
0.0103451
0.010345
0.010345
0.0103443
0.010344
0.010344
0.0103438
0.0103438
0.0103436
0.0103437
0.0103428
0.0103428
0.0103427
0.0103416
0.010342
0.0103421
0.0103421
0.0102652
0.0102658
0.0102653
0.0102654
0.0102655
0.0102656
0.0102654
0.0102654
0.0102656
0.0102664
0.0102658
0.0102659
0.0102661
0.0102676
0.0102672
0.0102673
0.0102669
0.0106335
0.010527
0.0105271
0.0104313
0.0104319
0.0103453
0.0103458
0.0106311
0.0106323
0.0106335
0.0106323
0.0106306
0.0104316
0.0104312
0.0103457
0.0103453
0.010345
0.0106295
0.0105254
0.0105263
0.010527
0.0105263
0.0105256
0.0105261
0.0105269
0.010526
0.010424
0.010425
0.0104261
0.0104266
0.0104271
0.0104273
0.0104293
0.0104294
0.010431
0.0103404
0.0103415
0.0103418
0.0103438
0.0103452
0.0105258
0.0105266
0.0105272
0.0105264
0.0104239
0.010426
0.0104269
0.0104293
0.0103392
0.0103413
0.0103432
0.0103438
0.0106323
0.0106342
0.0106335
0.0106323
0.0105262
0.0105265
0.0105262
0.0105272
0.010527
0.010526
0.0105253
0.0104318
0.0104311
0.0104298
0.010429
0.0104264
0.0103453
0.0103453
0.010345
0.0103436
0.0103411
0.0104312
0.0104298
0.0103454
0.010344
0.0106309
0.0105262
0.0105261
0.0105263
0.0104311
0.0104311
0.0104317
0.0103447
0.0103458
0.00946434
0.00934639
0.00946928
0.00946607
0.00946525
0.00946497
0.00946965
0.00946928
0.00946855
0.00946628
0.00946601
0.00946546
0.00946541
0.00946522
0.00946404
0.00946501
0.00946483
0.0094643
0.00946489
0.00946473
0.00946415
0.00946482
0.00946465
0.00946407
0.00934643
0.00934633
0.00934626
0.00921165
0.00921158
0.00921158
0.00905286
0.00946465
0.00946448
0.00946394
0.00946387
0.00946414
0.00946428
0.00946358
0.00946485
0.00946517
0.00946497
0.00946442
0.00946698
0.00946726
0.00946697
0.00934645
0.00934642
0.00934636
0.0093464
0.00934647
0.00934644
0.00934636
0.00934685
0.00934693
0.0093469
0.00934683
0.00934735
0.00934755
0.00934741
0.00934732
0.00921162
0.00921165
0.0092116
0.0092116
0.00921166
0.00921181
0.00921176
0.00921162
0.00921177
0.00921181
0.00921176
0.00921176
0.00921095
0.00921102
0.00921095
0.00921098
0.00905294
0.0101072
0.0101073
0.0101081
0.0101074
0.0101083
0.0101083
0.0101094
0.0101094
0.0100252
0.010026
0.0100267
0.0100273
0.0100262
0.0100269
0.0100261
0.010027
0.00987825
0.00987795
0.00978723
0.00978723
0.00963656
0.00963728
0.0101103
0.0101102
0.0101102
0.0101096
0.0101096
0.0101096
0.0101093
0.0101094
0.0101085
0.0101082
0.0101083
0.0101083
0.0101073
0.0101074
0.0101074
0.0101069
0.010107
0.010107
0.0100267
0.0100276
0.0100268
0.0100272
0.010028
0.0100273
0.010027
0.0100283
0.0100278
0.0100261
0.0100269
0.0100263
0.010025
0.0100258
0.0100252
0.0100247
0.0100255
0.0100248
0.00988193
0.00988005
0.0098783
0.00987873
0.00978248
0.00978707
0.00978794
0.00978759
0.009618
0.00962702
0.00962906
0.00963416
0.0101901
0.0101901
0.0101893
0.0101891
0.0101879
0.0101878
0.0101878
0.0101878
0.0101867
0.010187
0.0101863
0.0101867
0.0101869
0.0101869
0.0101875
0.0101868
0.010188
0.0101879
0.010189
0.0101892
0.0101102
0.0101101
0.01011
0.0101096
0.0101095
0.0101095
0.0101086
0.0101085
0.0101083
0.0101083
0.0101074
0.0101075
0.010107
0.0101071
0.0101073
0.0101074
0.0101082
0.0101082
0.0101084
0.0101084
0.0101095
0.0101094
0.0100267
0.0100267
0.0100275
0.010027
0.0100273
0.0100279
0.0100269
0.0100271
0.0100275
0.010026
0.0100263
0.0100251
0.0100252
0.0100247
0.0100248
0.0100251
0.0100254
0.0100265
0.0100261
0.0100263
0.0100262
0.0098814
0.00987954
0.00987779
0.00987805
0.00978334
0.00978155
0.00978771
0.00978832
0.00978839
0.00961619
0.00961483
0.00962578
0.00962498
0.00963283
0.00963376
0.0101073
0.0101081
0.0101084
0.0101094
0.0100254
0.0100268
0.0100263
0.010026
0.0100262
0.0100261
0.00987834
0.00987818
0.00987744
0.00987803
0.00987786
0.00987789
0.00987814
0.00987781
0.00987795
0.00987756
0.00987729
0.00987882
0.00987911
0.00987882
0.00988072
0.0098809
0.00988082
0.00978683
0.00978718
0.00978817
0.00978683
0.00978719
0.00978817
0.00978766
0.0097872
0.00978762
0.00978844
0.0097882
0.00978835
0.00978761
0.00978711
0.00978751
0.00978552
0.009785
0.00978524
0.00963691
0.00963658
0.00963656
0.00963769
0.0096374
0.00963738
0.00963662
0.00963672
0.00963665
0.00963667
0.00963627
0.00963622
0.00963419
0.00963362
0.00963345
0.00963316
0.0096296
0.00962887
0.00962849
0.00988222
0.0098822
0.00988042
0.00988021
0.00987938
0.00987831
0.009879
0.00987871
0.00978187
0.00978197
0.00978646
0.00978678
0.00978747
0.00978768
0.0097871
0.0097875
0.00961599
0.00961605
0.00962633
0.00962571
0.00963279
0.00963263
0.00963408
0.00963381
0.0102656
0.0102655
0.0102652
0.0102656
0.0102661
0.0102662
0.0102657
0.0102653
0.0102655
0.0102656
0.0101911
0.0101906
0.0101908
0.0101896
0.0101892
0.0101895
0.0101879
0.0101876
0.0101889
0.0101878
0.0101876
0.0101878
0.0101868
0.01034
0.0103402
0.0103401
0.0103414
0.0103413
0.0103413
0.0103434
0.0103433
0.0103433
0.010344
0.0103438
0.0103439
0.0102681
0.0102671
0.0102672
0.0102664
0.0102669
0.0102662
0.0102664
0.0102661
0.0102658
0.0102657
0.0102656
0.0102657
0.0102658
0.0102655
0.0102657
0.0102657
0.0102655
0.0101868
0.0101866
0.0101869
0.0101868
0.0101865
0.0101875
0.010188
0.0101877
0.010188
0.0101896
0.0101893
0.0101867
0.010187
0.0101865
0.0101864
0.0102652
0.0102656
0.0102653
0.0102658
0.010266
0.0102655
0.0102656
0.0102652
0.0102656
0.0102653
0.0102651
0.0102654
0.010266
0.0102656
0.0102659
0.0102669
0.0102664
0.0102666
0.0101896
0.0103453
0.0102653
0.0102656
0.0102653
0.0102653
0.0102656
0.0101867
0.00934789
0.00934753
0.00934735
0.00934689
0.00921106
0.00921194
0.00921182
0.00921177
0.00905038
0.00905278
0.00905294
0.00905275
0.00921166
0.00905262
0.00905261
0.00905309
0.00905298
0.00905072
0.00905031
0.00905274
0.01078
0.0106557
0.0106549
0.0106533
0.010656
0.0106604
0.0106316
0.0106329
0.0106352
0.0106338
0.0106323
0.0107864
0.0107859
0.010786
0.0107837
0.0107838
0.0107832
0.010781
0.0107812
0.0107807
0.0107817
0.0107818
0.0107813
0.0107806
0.0107804
0.0107805
0.0106636
0.0106641
0.0106616
0.010659
0.0106595
0.0106576
0.0106565
0.0106556
0.0106544
0.0106572
0.0106577
0.0106559
0.0106574
0.0106581
0.010656
0.0106325
0.0106314
0.0106335
0.0106345
0.0106337
0.0106352
0.0106351
0.0106356
0.0106366
0.0106328
0.0106321
0.0106337
0.0106306
0.0106299
0.0106319
0.0107799
0.0107792
0.0107796
0.0107816
0.0107806
0.0107851
0.010784
0.0106578
0.0106535
0.0106561
0.0106567
0.0106523
0.010654
0.0106544
0.0106568
0.0106547
0.0106573
0.0106578
0.0106617
0.0106588
0.0106622
0.0106629
0.0106304
0.0106297
0.0106342
0.0106318
0.0106312
0.0106355
0.010634
0.0106342
0.0106353
0.0106329
0.0106322
0.0106347
0.0106312
0.0106302
0.0107802
0.0106603
0.0106566
0.010655
0.0106546
0.0106543
0.0106539
0.010657
0.0106362
0.0106371
0.0106367
0.0106352
0.0106335
0.0106332
0.0105262
0.0105264
0.0105262
0.0105266
0.0105269
0.0105273
0.0105258
0.0105263
0.0105249
0.0105251
0.0104317
0.0104316
0.0104311
0.0104312
0.0104299
0.0104301
0.0104293
0.0104295
0.0104273
0.0104278
0.0103453
0.0103457
0.0103453
0.0103452
0.0103449
0.0103449
0.0103436
0.0103438
0.0103416
0.0103426
0.0103438
0.0103438
0.0103447
0.0103451
0.0105249
0.010525
0.0105257
0.0105262
0.0105265
0.010527
0.0105258
0.0105263
0.010526
0.0105263
0.0104257
0.0104259
0.010427
0.0104272
0.0104278
0.0104293
0.0104294
0.0104296
0.010431
0.010431
0.0103402
0.010342
0.0103416
0.0103422
0.0103432
0.0103433
0.0106343
0.0106334
0.0106321
0.0105263
0.0105271
0.0105262
0.0105265
0.0105273
0.0105263
0.010527
0.0105278
0.0105268
0.0105263
0.010527
0.0105261
0.0105252
0.010526
0.0105249
0.0104318
0.0104316
0.0104314
0.0104311
0.0104298
0.01043
0.010431
0.0104291
0.0104294
0.0104292
0.010427
0.0104274
0.0104272
0.0103457
0.0103456
0.0103452
0.0103453
0.0103449
0.010344
0.0103436
0.0103436
0.0103436
0.0103421
0.0103422
0.0103421
0.0105262
0.010525
0.010527
0.010526
0.0105276
0.0105268
0.010527
0.0105261
0.0105262
0.010527
0.0105261
0.0104255
0.0104255
0.0104269
0.0104269
0.0104292
0.0104276
0.0104296
0.0104294
0.0104312
0.010431
0.0103406
0.0103405
0.0103414
0.0103416
0.0103432
0.0103432
0.0103437
0.0103438
0.0103452
0.0103451
0.00946492
0.00946485
0.00946466
0.0094644
0.00946511
0.00946627
0.00946704
0.0102651
0.0102658
0.0102652
0.010265
0.0102649
0.0102647
0.0102653
0.0102651
0.0102655
0.0102652
0.0102654
0.0102655
0.0102653
0.0102655
0.0102655
0.0102655
0.0102653
0.0102652
0.0102652
0.010265
0.0102654
0.0102653
0.0102651
0.0102657
0.0102652
0.0102654
0.010189
0.010189
0.0101886
0.0101882
0.0101876
0.0101878
0.0101876
0.0101874
0.0101867
0.0101869
0.0101867
0.0101865
0.0101867
0.0101869
0.0101869
0.0101868
0.0101868
0.0101872
0.0101871
0.0101878
0.0101877
0.0101875
0.0101889
0.0101884
0.0101885
0.0101098
0.0101096
0.0101093
0.0101092
0.0101085
0.010109
0.0101083
0.0101082
0.0101074
0.0101074
0.0101071
0.0101071
0.0101074
0.0101074
0.0101075
0.0101075
0.0101083
0.0101083
0.0101092
0.0101091
0.0100268
0.0100273
0.0100278
0.0100263
0.0100252
0.0100249
0.0100255
0.0100268
0.0100264
0.0100262
0.0102658
0.0102657
0.0102653
0.0102654
0.010265
0.0102652
0.0102652
0.0102654
0.0102653
0.0102653
0.0102652
0.010265
0.0102653
0.0102657
0.0101897
0.0101896
0.0101887
0.0101888
0.0101884
0.0101883
0.0101875
0.0101877
0.0101868
0.010187
0.0101865
0.0101867
0.0101866
0.0101876
0.0101889
0.0101099
0.0101095
0.0101085
0.0101085
0.0101083
0.0101083
0.0101075
0.0101075
0.0101071
0.0101071
0.0101074
0.0101074
0.0101075
0.0101075
0.0101084
0.0101084
0.0101093
0.0101093
0.0100266
0.0100271
0.0100269
0.0100269
0.0100261
0.0100258
0.010025
0.0100255
0.0100247
0.010026
0.0100252
0.0100272
0.010026
0.0100269
0.0100261
0.0100269
0.010026
0.0100266
0.0100269
0.0100268
0.0100259
0.010025
0.0100246
0.010025
0.0100259
0.010026
0.00988251
0.0098827
0.00988047
0.00988072
0.00987845
0.00987961
0.00987885
0.00987901
0.00987825
0.00987791
0.00987803
0.00987817
0.00978645
0.0097882
0.00978725
0.0096274
0.00963357
0.010026
0.00987918
0.00988118
0.00987824
0.00987713
0.00987792
0.00987714
0.00987791
0.00987678
0.00987804
0.00987814
0.00987899
0.00988001
0.00988105
0.00978696
0.00978697
0.00978849
0.0097874
0.00978897
0.00978818
0.0097884
0.00978727
0.00978643
0.0097849
0.00963662
0.0096375
0.00963664
0.00963633
0.00963614
0.00963322
0.00963286
0.00962847
0.00962775
0.00946503
0.00946483
0.00946432
0.00934649
0.00934654
0.00934656
0.00921171
0.00921165
0.00921166
0.0092117
0.00946523
0.00946708
0.00934703
0.00934763
0.00921182
0.00921104
0.00934654
0.0093464
0.0092116
0.00934647
0.00934678
0.00934697
0.00934749
0.00921162
0.00921167
0.00921178
0.00921098
0.00905271
0.0090529
0.00905275
0.00905036
0.00905258
0.00905256
0.00905267
0.00905287
0.00905271
0.0090503
0.00987756
0.00987756
0.00987711
0.00978739
0.0097878
0.00978842
0.00963772
0.00963736
0.00963663
0.00963648
0.00963602
0.00963348
0.00946471
0.0094645
0.00946405
0.00934642
0.00934651
0.00934682
0.00921159
0.00921162
0.00921177
0.00987875
0.0098809
0.00978765
0.00978525
0.00963234
0.00962698
0.00946482
0.00946654
0.00934699
0.00934746
0.00921178
0.00921097
0.00905271
0.00905281
0.00905301
0.00905285
0.00905052
0.00988239
0.00988033
0.00987828
0.0098786
0.00987792
0.00978211
0.0097867
0.00978757
0.00978763
0.00978738
0.00961352
0.00961454
0.00962443
0.00962415
0.00963186
0.00963182
0.00963339
0.00963309
0.00963678
0.00963638
0.00946926
0.00946865
0.0094661
0.00946561
0.00946526
0.00946435
0.00946509
0.0094647
0.00946508
0.00946475
0.00934799
0.00934787
0.00934759
0.00934753
0.00934739
0.00934737
0.00934695
0.00934691
0.00934664
0.00934656
0.00921112
0.00921105
0.00921198
0.00921194
0.00921186
0.00921181
0.0092118
0.00921177
0.00921164
0.00905053
0.00905288
0.0090529
0.00905305
0.00905271
0.00905285
0.00905273
0.00978123
0.00978611
0.00978716
0.00978699
0.00978677
0.00978678
0.00978716
0.00978798
0.00978701
0.00978464
0.00963261
0.00962709
0.00886413
0.00886374
0.00886759
0.00885825
0.00886392
0.00921087
0.00921172
0.00921172
0.00921176
0.0092117
0.00921083
0.00921168
0.00921167
0.00921171
0.00921165
0.0092116
0.00905041
0.00905287
0.0090528
0.00905263
0.00905266
0.00905039
0.00905286
0.00905279
0.00905262
0.00905265
0.00905288
0.00905054
0.00905295
0.00905288
0.00905273
0.00905275
0.00905297
0.0090508
0.0090531
0.00905305
0.00905292
0.00905297
0.00905311
0.00905057
0.00905298
0.00905291
0.00905276
0.00905279
0.009053
0.00904705
0.00905068
0.00905058
0.00905035
0.0090504
0.00905074
0.00886353
0.00886744
0.00886733
0.00886706
0.00886714
0.00886352
0.00886743
0.00886732
0.00886706
0.00886713
0.00886373
0.00886758
0.00886747
0.00886722
0.00886729
0.00886785
0.00886775
0.00886753
0.00886759
0.00886748
0.00886723
0.0088673
0.00886377
0.00886343
0.00886353
0.00920982
0.0092111
0.00921109
0.00921114
0.00921107
0.00921107
0.0092111
0.00921198
0.00921197
0.009212
0.00921195
0.00921192
0.00921103
0.00921185
0.00921186
0.009212
0.00921196
0.0092119
0.00921095
0.00921182
0.00921182
0.00921184
0.00921179
0.00921176
0.00921165
0.00904707
0.0090507
0.0090506
0.00905036
0.00905041
0.00905076
0.0090506
0.00905301
0.00905295
0.00905279
0.00905282
0.00905303
0.00905086
0.00905317
0.00905311
0.00905298
0.009053
0.00905314
0.00905057
0.00905298
0.00905291
0.00905276
0.00905279
0.009053
0.0090529
0.00905046
0.00905031
0.00905044
0.00905284
0.00905274
0.00905282
0.00905299
0.0090529
0.009053
0.00905281
0.00905271
0.00905279
0.00905269
0.00905258
0.00905267
0.00905267
0.0088634
0.00886721
0.0088675
0.0088672
0.00886703
0.00847758
0.00846856
0.00846884
0.00846948
0.0084689
0.00846257
0.0084628
0.00846331
0.00846812
0.00846196
0.00846217
0.00846265
0.00846877
0.00846243
0.00846266
0.00846318
0.00846908
0.00846265
0.00846289
0.00846343
0.00846905
0.00846261
0.00846285
0.00846339
0.00846867
0.00846233
0.00846256
0.00846308
0.00846791
0.00846173
0.00846204
0.00846252
0.00846877
0.00846243
0.00846267
0.00846318
0.00847748
0.00846845
0.00846874
0.00846938
0.00886754
0.00886767
0.00886793
0.00886768
0.00886406
0.00885826
0.00886392
0.00886378
0.00886343
0.00886354
0.00886406
0.00886375
0.0088676
0.00886749
0.00886724
0.00886731
0.00886769
0.00886414
0.00886786
0.00886776
0.00886753
0.0088676
0.00886794
0.00886374
0.00886759
0.00886748
0.00886723
0.0088673
0.00886768
0.00886754
0.00886362
0.00886737
0.00886765
0.00886736
0.0088672
0.0088672
0.00905281
0.00905271
0.00905279
0.00905044
0.00905029
0.00905043
0.00886735
0.00886764
0.00886736
0.00886362
0.00905257
0.00905265
0.00905278
0.00905267
0.00905276
0.00905295
0.00905287
0.00905294
0.00921159
0.00921167
0.00921162
0.00921168
0.00921165
0.00921184
0.00921178
0.00905278
0.00905287
0.00905307
0.00905291
0.00905062
0.00921107
0.00921114
0.00921194
0.00921201
0.00921193
0.00921201
0.00921177
0.00921183
0.00921165
0.00921173
0.00921116
0.00921203
0.00921203
0.00921185
0.0090531
0.00905291
0.0090528
0.00905261
0.00921185
0.00921106
0.0092117
0.00921186
0.00921187
0.00921108
0.00905272
0.00905291
0.00905285
0.00905273
0.00905279
0.00905294
0.0090531
0.00905305
0.00905296
0.00905275
0.00905295
0.00905289
0.00905277
0.00905065
0.00905055
0.00905036
0.00921169
0.00905261
0.00905282
0.00905275
0.00905262
0.00905268
0.0090526
0.0090527
0.0090529
0.00905274
0.00905034
0.00921175
0.00905297
0.00905282
0.00905044
0.00886732
0.00886772
0.00886356
0.00886409
0.00905317
0.00905302
0.00905287
0.00905051
0.00905306
0.00905081
0.00905303
0.00905294
0.00905035
0.00886724
0.00886344
0.0101076
0.0101092
0.0101086
0.0101084
0.0101076
0.010107
0.010107
0.0101068
0.0101067
0.0100272
0.0100276
0.0100279
0.0100266
0.0100255
0.0100247
0.0100252
0.0100244
0.0100257
0.010027
0.0100258
0.0100267
0.0100259
0.0100267
0.0100258
0.0102706
0.0102673
0.0102655
0.0102655
0.0101901
0.0101882
0.0101881
0.0101871
0.0101868
0.0101868
0.0101863
0.0101865
0.0101861
0.0101863
0.0101862
0.0101865
0.0101861
0.0101868
0.0101869
0.0101873
0.0101883
0.0101887
0.010107
0.010107
0.0101076
0.0101071
0.0101077
0.0101077
0.0101085
0.0101085
0.010025
0.0103457
0.010344
0.010344
0.0103444
0.0102701
0.0102668
0.0102661
0.0102651
0.0103452
0.0103456
0.0103456
0.0103453
0.0103454
0.010345
0.0103451
0.0103442
0.0103443
0.0103436
0.0103434
0.010265
0.0102652
0.010265
0.0102652
0.0102649
0.0102653
0.0102649
0.010265
0.0102653
0.0102657
0.0102666
0.010267
0.00934697
0.00946344
0.00946379
0.00946523
0.00934668
0.00934675
0.00934665
0.0101092
0.0101086
0.0101084
0.0100264
0.010027
0.0100267
0.0100259
0.00988213
0.00988124
0.00988046
0.00987975
0.00987862
0.0098781
0.009879
0.00987834
0.00987823
0.00987752
0.00987781
0.00987709
0.00978534
0.00978706
0.00978796
0.0097874
0.00978831
0.00978706
0.00978806
0.00978707
0.00978806
0.00962169
0.00962656
0.00963177
0.00963278
0.0096358
0.00963685
0.00963682
0.00946822
0.00946494
0.00946383
0.00946427
0.00987787
0.00987721
0.0098769
0.00987844
0.00988032
0.00978751
0.00978838
0.00978891
0.00978832
0.0097868
0.00963591
0.00963593
0.00963553
0.0096324
0.00962868
0.00946441
0.00946465
0.00946477
0.0101902
0.0101884
0.010187
0.009053
0.0090528
0.00905289
0.00921126
0.00921212
0.00921201
0.00921196
0.00921191
0.00921178
0.00905276
0.00905286
0.00921187
0.00921181
0.00921176
0.00905267
0.00905277
0.00905265
0.00905276
0.0103456
0.010344
0.010344
0.0103443
0.0103452
0.0107791
0.0107791
0.0107794
0.0107803
0.0107815
0.0107834
0.0107845
0.0106538
0.0106532
0.010652
0.0106542
0.0106568
0.0106581
0.0106617
0.0106339
0.0106352
0.0106348
0.0106325
0.0106341
0.0106309
0.010633
0.010422
0.0104257
0.0104269
0.0104298
0.0105269
0.0105271
0.0105275
0.010527
0.0105262
0.0105262
0.0105253
0.0104313
0.0104318
0.0104315
0.0104314
0.0104295
0.0104292
0.0104274
0.0104267
0.0106625
0.0106578
0.0106555
0.0106562
0.0106566
0.010632
0.0106337
0.0106333
0.0106346
0.0106352
0.0106361
0.0106316
0.0106328
0.0105259
0.0105268
0.0105272
0.0105262
0.0104215
0.0104255
0.0104292
0.0104297
0.0103459
0.0103441
0.0103441
0.0103444
0.0107801
0.0107798
0.0107801
0.0107801
0.0107804
0.0107801
0.0107801
0.0107814
0.0107845
0.0106563
0.0106577
0.0106563
0.0106553
0.0106565
0.0106553
0.0106534
0.0106563
0.0106609
0.0106309
0.0106321
0.010634
0.0106329
0.0106314
0.0106296
0.010631
0.0106294
0.0106308
0.010526
0.0105261
0.0105264
0.0105269
0.0105263
0.0105252
0.0104311
0.0104316
0.0104313
0.0104312
0.0104293
0.0104271
0.0103453
0.0103457
0.0102704
0.0102671
0.0102653
0.0107797
0.0107801
0.0106549
0.0106575
0.0106542
0.0106564
0.0106528
0.0106549
0.0106553
0.0106575
0.0106593
0.0106622
0.0106324
0.0106299
0.0106335
0.0106314
0.0106357
0.0106337
0.0106345
0.0106323
0.0106332
0.0106302
0.0107856
0.0107859
0.0107829
0.0107836
0.0107804
0.0107822
0.010781
0.0107818
0.0107802
0.0107806
0.0106605
0.0106568
0.0106539
0.0106553
0.0106552
0.0106574
0.0106552
0.0106578
0.0106343
0.0106358
0.010637
0.0106344
0.0106322
0.0106327
0.0106302
0.0105267
0.0105269
0.0105274
0.0105266
0.0105258
0.0105254
0.0105247
0.0104316
0.0104313
0.0104301
0.0104296
0.0104279
0.0104276
0.0103456
0.0103452
0.0103439
0.0103437
0.0103427
0.0103424
0.0102658
0.0102649
0.0102646
0.010265
0.0102653
0.0102654
0.0102652
0.0102649
0.010265
0.0102651
0.0102653
0.0102652
0.0101889
0.0101887
0.0101881
0.0101881
0.0101872
0.0101873
0.0101868
0.0101866
0.0101865
0.0101867
0.0101868
0.0101866
0.0101867
0.0101873
0.0101874
0.0101883
0.0101881
0.0101095
0.0101094
0.0101092
0.010109
0.010109
0.0101089
0.0101082
0.0101081
0.0101074
0.0101074
0.0101071
0.0101071
0.0101074
0.0101073
0.0101081
0.010108
0.0101082
0.0101082
0.010109
0.0101089
0.010027
0.0100264
0.0100275
0.0100269
0.0100279
0.0100274
0.0100265
0.0100259
0.0100255
0.0100249
0.0100251
0.0100245
0.0100257
0.010025
0.0100269
0.0100264
0.0100266
0.0100259
0.0100265
0.0100259
0.0103438
0.0103451
0.0105253
0.0105264
0.0105272
0.0105266
0.0105265
0.0104257
0.0104273
0.0104279
0.0104297
0.0104311
0.0103424
0.0103422
0.0103433
0.00987731
0.00987785
0.00987733
0.00987796
0.00987693
0.00987744
0.00978772
0.00978679
0.00978809
0.0097872
0.00978863
0.00978818
0.00963735
0.00963755
0.00963647
0.00963644
0.00963341
0.00963336
0.00946453
0.00946512
0.00946433
0.00946487
0.00946391
0.00946435
0.00934641
0.00934656
0.0093465
0.00934662
0.00934651
0.00934664
0.00987853