/*--------------------------------*- C++ -*----------------------------------*\
  =========                 |
  \\      /  F ield         | OpenFOAM: The Open Source CFD Toolbox
   \\    /   O peration     | Website:  https://openfoam.org
    \\  /    A nd           | Version:  8
     \\/     M anipulation  |
\*---------------------------------------------------------------------------*/
FoamFile
{
    version     2.0;
    format      ascii;
    class       volScalarField;
    location    "0";
    object      nut;
}
// * * * * * * * * * * * * * * * * * * * * * * * * * * * * * * * * * * * * * //

dimensions      [0 2 -1 0 0 0 0];

internalField   nonuniform List<scalar> 
267833
(
0.00342087
0.00342692
0.00342565
0.00342483
0.00342448
0.0038979
0.00391701
0.00391354
0.0039048
0.00390788
0.00341714
0.00342432
0.0034229
0.00342242
0.0034218
0.00342628
0.00342222
0.00342934
0.00342813
0.00342593
0.00342655
0.00343084
0.00342636
0.00343185
0.00343139
0.00342919
0.00342977
0.00343291
0.00342166
0.00342877
0.00342756
0.00342534
0.00342596
0.00343024
0.00389026
0.00391338
0.00390943
0.00389969
0.00390301
0.00391754
0.00390624
0.00392292
0.00392006
0.00391283
0.00391545
0.00392605
0.0039168
0.00392904
0.00392609
0.00392247
0.00392414
0.00393013
0.00390487
0.00392151
0.00391865
0.00391139
0.00391401
0.00392462
0.00404725
0.00402416
0.00402817
0.00403785
0.00403435
0.00401957
0.00402782
0.00401146
0.00401433
0.00402166
0.00401908
0.0040085
0.00401682
0.0040037
0.00400561
0.00401032
0.00400871
0.0040017
0.00402609
0.0040098
0.00401264
0.0040199
0.00401734
0.00400685
0.00342856
0.00342435
0.00342843
0.00342558
0.00342986
0.00342936
0.00343249
0.003426
0.00343027
0.00342135
0.00342582
0.00392073
0.00389769
0.0039168
0.00391332
0.00390458
0.00390765
0.0039205
0.00390418
0.00392079
0.00391793
0.00391067
0.00391327
0.00392386
0.00391556
0.00392773
0.00392527
0.00392062
0.00392226
0.00392927
0.00390496
0.00392157
0.00391872
0.00391147
0.00391408
0.00392467
0.00388862
0.00391176
0.0039078
0.00389815
0.00390151
0.00391609
0.00342493
0.00342626
0.003429
0.00343019
0.00342536
0.00342224
0.00391035
0.00391541
0.00392099
0.00392421
0.00391118
0.00389775
0.00342268
0.00342209
0.00342628
0.00342592
0.00342725
0.00343085
0.00342955
0.00343033
0.00343292
0.00342532
0.00342665
0.00343026
0.00342499
0.00342483
0.00342857
0.00342485
0.0034247
0.00342843
0.00389904
0.00390554
0.00391249
0.00391752
0.0039213
0.00392547
0.0039111
0.00391616
0.00390444
0.00391047
0.00390421
0.00391023
0.00403771
0.00403084
0.00402196
0.00401683
0.00401178
0.00400735
0.00402028
0.00401524
0.00402541
0.00401941
0.00401915
0.0034221
0.00342724
0.00343073
0.00342664
0.00390578
0.00391759
0.00392553
0.00391616
0.00403129
0.00401694
0.00400735
0.00401524
0.00343018
0.00342668
0.00342164
0.00391541
0.00392421
0.00391623
0.00390437
0.00342483
0.0034247
0.00391046
0.00391023
0.00342625
0.0040194
0.0107204
0.0107312
0.0107299
0.0107274
0.0107282
0.0107329
0.010729
0.0107216
0.0107319
0.0107307
0.0107282
0.0107291
0.0107334
0.0107255
0.0107345
0.0107336
0.0107316
0.0107296
0.0107358
0.0107176
0.010728
0.0107268
0.0107243
0.0107251
0.0107294
0.0106995
0.0107135
0.010712
0.0107089
0.0107097
0.0107152
0.0115025
0.011503
0.0115029
0.0115023
0.0115025
0.0115032
0.0115027
0.0115026
0.0115028
0.0115027
0.0115023
0.0115024
0.011503
0.0115019
0.011503
0.0115019
0.0115025
0.0115017
0.0115032
0.0115011
0.0115014
0.0115013
0.0115009
0.0115011
0.0115016
0.0114994
0.0114999
0.0114998
0.0114992
0.0114995
0.0115001
0.0123748
0.0123805
0.012375
0.0123749
0.0123746
0.0123748
0.0123748
0.0123798
0.0123748
0.0123748
0.0123741
0.0123745
0.0123748
0.0123802
0.0123746
0.0123746
0.0123743
0.0123744
0.0123745
0.0123882
0.0123801
0.0123801
0.0123796
0.0123799
0.0123798
0.0104784
0.0104583
0.0104521
0.010438
0.0104379
0.0104457
0.0106347
0.0106526
0.0106504
0.0106429
0.0106442
0.0106535
0.0107216
0.0107306
0.0107297
0.0106797
0.0107283
0.0107318
0.0107183
0.0107285
0.0107273
0.0107249
0.0107256
0.0107299
0.0107263
0.0107195
0.0107302
0.0107289
0.0107265
0.0107273
0.0107319
0.010728
0.0114737
0.0114631
0.0114637
0.0114722
0.0114571
0.0114471
0.0114996
0.0114998
0.0114997
0.0114982
0.0114965
0.0114959
0.0115002
0.0115016
0.0115014
0.0115011
0.0115012
0.0115018
0.0115013
0.0115015
0.0115014
0.0115011
0.0115012
0.0115017
0.0115013
0.0115021
0.0115026
0.0115024
0.0115018
0.0115021
0.0115027
0.0115023
0.0123747
0.0104433
0.0106467
0.0107288
0.0114487
0.0114567
0.0114448
0.0114414
0.0114953
0.0114944
0.0114938
0.0114944
0.0114979
0.0115011
0.0115015
0.0115019
0.0115011
0.0115014
0.0115018
0.012378
0.0123773
0.0123774
0.0123772
0.0123741
0.0123739
0.0123742
0.0123742
0.012374
0.012374
0.0123741
0.0123742
0.0123745
0.0123743
0.0123746
0.0123745
0.0133923
0.0133786
0.0133778
0.0133787
0.0133792
0.0115018
0.0115024
0.0115028
0.0123743
0.0123747
0.0123747
0.00690337
0.00690346
0.00690347
0.00690355
0.00690269
0.00690277
0.00690337
0.00690339
0.00690246
0.00690258
0.00690258
0.00690266
0.00690161
0.00690149
0.00690151
0.00690187
0.00740694
0.00739943
0.00740074
0.0074034
0.00740195
0.00739622
0.00739716
0.00739895
0.00740648
0.00739899
0.00740031
0.00740299
0.00741225
0.00740392
0.00740554
0.00740728
0.00826945
0.00826961
0.00827438
0.00826723
0.00827493
0.00827362
0.00827098
0.00827175
0.0082764
0.00827227
0.00827841
0.00827743
0.00827609
0.00827607
0.00827932
0.00825949
0.00827455
0.0082732
0.0082717
0.00827026
0.00827209
0.00822745
0.00824893
0.0082523
0.00825216
0.00823931
0.00822801
0.00879067
0.00878968
0.00878295
0.00879438
0.00878477
0.00878641
0.00879003
0.00878872
0.00878265
0.00878346
0.00877957
0.00878073
0.0087854
0.00878435
0.00877991
0.00878282
0.00878001
0.00878151
0.0087793
0.00876761
0.00875324
0.0087616
0.00875313
0.00875545
0.00874337
0.00871197
0.00866835
0.00964863
0.00964934
0.00964503
0.00964657
0.00964737
0.00965069
0.00964945
0.00964946
0.00964878
0.00964903
0.00964902
0.00965227
0.00965537
0.00965524
0.00965014
0.00965004
0.00964966
0.00965964
0.00965775
0.00965777
0.009657
0.00965709
0.00965684
0.00966873
0.00966824
0.00966813
0.00966687
0.0096677
0.00966452
0.00690271
0.00690349
0.0069034
0.00690342
0.00690374
0.00690379
0.0069037
0.00690371
0.00690403
0.00740504
0.00740678
0.00739965
0.00740237
0.00739671
0.00739877
0.00740654
0.00739904
0.00740036
0.00740304
0.0074081
0.00740107
0.0074025
0.0074043
0.00740821
0.00740118
0.00740261
0.00740441
0.00814414
0.00815153
0.00815532
0.00814062
0.00809876
0.00806069
0.00822122
0.00824922
0.00825211
0.00824792
0.00823031
0.0082141
0.00825974
0.00827726
0.00825963
0.00827561
0.00827308
0.00822697
0.00826321
0.0082754
0.00827409
0.00827216
0.00827153
0.00827418
0.00826622
0.00827344
0.00827201
0.00827021
0.00827035
0.00827513
0.00826545
0.00827266
0.00827123
0.00822398
0.00818301
0.00815135
0.0080559
0.00797478
0.0079152
0.00866599
0.00864749
0.00864852
0.00861316
0.00856179
0.00851293
0.00870832
0.00868926
0.00869198
0.00867378
0.00875372
0.00874151
0.00878942
0.0087841
0.00878577
0.00878613
0.00877817
0.00876525
0.00879733
0.0087873
0.00878918
0.00879266
0.0087916
0.00878482
0.00879519
0.00878523
0.00878713
0.00956566
0.00955144
0.00955592
0.00959758
0.00957685
0.00955744
0.00967824
0.00967636
0.00967644
0.00967667
0.00967741
0.00967437
0.00966162
0.00967048
0.0096702
0.00965888
0.00965861
0.00966815
0.00965791
0.00965657
0.00965649
0.0096556
0.0096557
0.00965572
0.00964939
0.00964979
0.00964969
0.00964723
0.00964705
0.00964754
0.00964747
0.00639064
0.00640177
0.00640122
0.00640733
0.00640794
0.00641094
0.00641037
0.00640963
0.00641184
0.00641477
0.00641435
0.00641351
0.00641064
0.00641369
0.00641316
0.00641256
0.00690089
0.00690068
0.0069007
0.00690107
0.00690133
0.00690143
0.00690143
0.00690149
0.00690155
0.00690161
0.00690246
0.00690247
0.00690253
0.00690262
0.00690263
0.00741173
0.00740341
0.00740578
0.00739832
0.00740126
0.00739527
0.005851
0.00588066
0.00589076
0.00590999
0.00590091
0.00591843
0.00591767
0.00592111
0.00641319
0.00641447
0.006414
0.00641559
0.00641365
0.00641494
0.00641447
0.00403163
0.00401283
0.00401628
0.004025
0.00402195
0.00450218
0.00449636
0.00449761
0.00449855
0.00449884
0.00497775
0.00497751
0.00497777
0.00497637
0.00497755
0.00497731
0.00497756
0.00545423
0.00545416
0.00545398
0.00545568
0.00545477
0.00545472
0.00545454
0.00592963
0.00593147
0.00593089
0.00593223
0.00593026
0.00593212
0.00593154
0.00452193
0.0045129
0.00451427
0.00451342
0.00451266
0.00450704
0.00450755
0.00450053
0.00450176
0.00450385
0.00450298
0.00449844
0.00449939
0.00449372
0.00449461
0.00449653
0.00449851
0.00449272
0.00450288
0.00449617
0.00449736
0.00449958
0.00449899
0.00449482
0.00500093
0.00499577
0.00499454
0.00499337
0.0049899
0.00498668
0.004989
0.00498538
0.00498567
0.00498481
0.00498361
0.00498158
0.00498397
0.00497843
0.00498224
0.0049792
0.004981
0.0049776
0.0049799
0.00497835
0.00497864
0.00497887
0.00497879
0.00497773
0.00497758
0.00540895
0.00542239
0.00542418
0.00542976
0.00543691
0.00544086
0.00544062
0.005442
0.0054431
0.00545118
0.00545088
0.00545043
0.00545056
0.00545189
0.00545165
0.00545158
0.00545427
0.00591324
0.00593061
0.00592289
0.00592456
0.00592628
0.0059298
0.00592917
0.00592834
0.00641209
0.00641518
0.00641465
0.00641408
0.00641352
0.00641644
0.00641602
0.00641527
0.00641047
0.00641357
0.00641303
0.0064124
0.00640746
0.00640871
0.00640817
0.00641029
0.00641607
0.00449852
0.00450624
0.0040314
0.00401259
0.00401604
0.00402475
0.0040217
0.00400895
0.00402529
0.00400899
0.00401183
0.00401907
0.0040165
0.00400601
0.00401528
0.00400344
0.00400471
0.00401001
0.0040084
0.00400078
0.00402617
0.00400985
0.00401269
0.00401997
0.00401741
0.00400689
0.00404459
0.00402186
0.00402582
0.00403555
0.00403222
0.00401769
0.00450186
0.00449603
0.00449728
0.00449822
0.0044985
0.00450157
0.00449481
0.004496
0.00449822
0.00449762
0.00449346
0.00449764
0.00449205
0.00449292
0.00449573
0.00449517
0.00449108
0.00450316
0.00449636
0.00449757
0.00449982
0.00449921
0.00449498
0.00451129
0.00450435
0.00450579
0.00450642
0.00450679
0.00450213
0.00497617
0.00497738
0.00497867
0.00497711
0.00497741
0.0049777
0.00497771
0.00497672
0.00497878
0.00497735
0.00497671
0.00497718
0.00497703
0.00497614
0.00498054
0.0049788
0.00497912
0.00497933
0.0049792
0.00497801
0.00497893
0.00498326
0.00498238
0.00498263
0.00498177
0.00498217
0.00498102
0.00498178
0.00545626
0.00545486
0.00545312
0.00545448
0.00545424
0.00545411
0.00545402
0.00545476
0.00545332
0.00545283
0.00545266
0.00545421
0.0054543
0.00545505
0.00544951
0.00545111
0.00545083
0.00545077
0.00545085
0.00545189
0.00545112
0.00544431
0.005445
0.00544483
0.00544591
0.00544567
0.0054468
0.00544632
0.00593289
0.00592868
0.00593231
0.00593168
0.00593089
0.00593029
0.00593175
0.00593129
0.00593042
0.00592572
0.00592939
0.00592873
0.00592784
0.00591949
0.00592152
0.00592081
0.00592256
0.00400921
0.00449482
0.00449448
0.0049771
0.0049769
0.00545444
0.00545503
0.00401943
0.0040144
0.00400963
0.00402035
0.00403592
0.00497759
0.00497757
0.00545452
0.00545405
0.00545445
0.00402515
0.0045092
0.00450133
0.00449724
0.00449824
0.00450971
0.00450301
0.00449652
0.00449961
0.00498494
0.00498448
0.0049819
0.0049811
0.00497998
0.00497936
0.00497857
0.00497839
0.00497776
0.00544282
0.00544725
0.00544919
0.00545202
0.00545395
0.00451104
0.00450198
0.00449535
0.00449832
0.00498704
0.00498244
0.00498024
0.00497859
0.00544188
0.00544618
0.00545125
0.00545191
0.00401439
0.00400641
0.0040153
0.00402935
0.0044981
0.00449696
0.00449829
0.00449366
0.00449485
0.00449982
0.00450566
0.00497577
0.00497766
0.00497765
0.00497887
0.00497999
0.00545666
0.00545411
0.0054542
0.00545136
0.00544859
0.0049776
0.0049775
0.00545406
0.00545278
0.00401915
0.00449848
0.00449844
0.00449813
0.00497779
0.00497596
0.0049776
0.00545607
0.00545454
0.0107298
0.0115026
0.0104621
0.0106512
0.0106838
0.0107255
0.0104446
0.0104546
0.0104612
0.0106455
0.0106505
0.0106571
0.0106812
0.0106829
0.0107317
0.0107247
0.0107263
0.0107298
0.0107265
0.0107281
0.010732
0.0107275
0.0107291
0.010733
0.0115023
0.0115028
0.0115033
0.0123744
0.0123748
0.0123748
0.0133792
0.0107283
0.0107299
0.0107335
0.0107329
0.0107316
0.0107301
0.0107358
0.0107258
0.0107241
0.0107257
0.0107293
0.0107105
0.0107086
0.0107103
0.0115024
0.0115027
0.0115031
0.0115027
0.0115025
0.0115028
0.0115032
0.0115012
0.011501
0.0115013
0.0115017
0.0114997
0.0114992
0.0114997
0.0115002
0.0123749
0.0123746
0.0123749
0.0123749
0.0123746
0.0123741
0.0123744
0.0123748
0.0123745
0.0123743
0.0123745
0.0123745
0.0123801
0.0123796
0.0123801
0.0123799
0.0133787
0.00690354
0.00690354
0.00690285
0.00690346
0.00690264
0.00690265
0.00690162
0.00690149
0.00740263
0.00739798
0.00739832
0.00739496
0.00740224
0.0073976
0.00740738
0.0074021
0.00827092
0.00827018
0.00879039
0.00878853
0.00964906
0.0096471
0.00690071
0.0069005
0.00690054
0.00690144
0.00690141
0.00690139
0.00690166
0.00690159
0.00690249
0.0069027
0.00690269
0.00690269
0.00690356
0.00690348
0.00690352
0.00690385
0.00690377
0.00690381
0.00740684
0.00740152
0.00740625
0.00740163
0.007397
0.00740089
0.00739815
0.00739436
0.00739716
0.00740228
0.00739763
0.00740152
0.00740417
0.00739939
0.00740359
0.00740427
0.0073995
0.00740369
0.00805223
0.00820686
0.00826959
0.00827039
0.00789448
0.00850393
0.00858426
0.00877083
0.00957025
0.00967531
0.0096678
0.0096557
0.00640771
0.00640502
0.00640932
0.00640951
0.00641329
0.00641373
0.00641245
0.0064126
0.00641599
0.00641387
0.0064165
0.0064144
0.00641411
0.00641429
0.0064141
0.00641567
0.00641226
0.00641242
0.00641048
0.00640771
0.00690095
0.00690041
0.00690034
0.0069014
0.00690129
0.00690129
0.00690247
0.00690245
0.00690274
0.00690266
0.00690386
0.00690353
0.00690416
0.00690383
0.0069036
0.00690355
0.00690287
0.00690282
0.00690267
0.0069026
0.00690187
0.00690144
0.00740667
0.00740613
0.00740139
0.00740254
0.00740085
0.00739697
0.00739893
0.00739761
0.00739484
0.0074032
0.00740153
0.00740429
0.00740359
0.00740439
0.00740369
0.00740353
0.00740187
0.0073991
0.00739799
0.0074015
0.00740681
0.00798615
0.00816798
0.00826481
0.00826985
0.00781056
0.00778717
0.00843132
0.00851079
0.00875624
0.00956369
0.00958815
0.00967253
0.00967391
0.00965823
0.0096558
0.00690354
0.00690284
0.00690263
0.00690152
0.00740186
0.00739775
0.00740148
0.00740315
0.00740683
0.00740728
0.00827017
0.00827083
0.00827503
0.00826945
0.00827012
0.0082725
0.0082708
0.00827242
0.00827434
0.00827526
0.00827651
0.00826794
0.00826289
0.00826099
0.00822024
0.00820446
0.0081881
0.00879244
0.00879024
0.00878464
0.00879059
0.00878841
0.00878281
0.00878752
0.00878991
0.00878739
0.00876693
0.00878519
0.00875878
0.00875687
0.00875127
0.00874242
0.00866368
0.00862896
0.00860482
0.00964653
0.00964888
0.00964913
0.00964458
0.00964698
0.00964724
0.00964908
0.00964843
0.00964892
0.00964882
0.0096499
0.00964975
0.00965459
0.0096571
0.0096567
0.00965738
0.00966507
0.00966343
0.00966195
0.00802681
0.00799379
0.00818537
0.00816747
0.00820702
0.00826036
0.00826694
0.00826622
0.00783534
0.0078154
0.00846626
0.00843634
0.00855988
0.00852803
0.00876951
0.00876214
0.00961139
0.00957518
0.00967398
0.00967329
0.00965882
0.00965888
0.00965512
0.00965579
0.00593131
0.00593115
0.00593082
0.00592817
0.0059215
0.0059162
0.00592307
0.00592609
0.00592858
0.00593058
0.00640524
0.00640626
0.00640478
0.00640952
0.00641124
0.00640959
0.00641369
0.00641515
0.00641175
0.00641256
0.00641427
0.00641269
0.00641416
0.00543459
0.00543855
0.00543868
0.00544354
0.00544578
0.00544514
0.00545084
0.00545205
0.00545128
0.00545157
0.0054524
0.00545173
0.0059122
0.00591525
0.00591362
0.00591723
0.00592149
0.00592409
0.00592215
0.00592221
0.00592919
0.00592664
0.00592947
0.00592529
0.00592836
0.00593041
0.00592856
0.00592824
0.00593087
0.00641412
0.00641589
0.00641432
0.00641549
0.00641696
0.00641454
0.00641239
0.00641414
0.00641252
0.00640831
0.00640928
0.00641523
0.0064139
0.00641465
0.00641573
0.00593324
0.00593085
0.0059321
0.00592778
0.0059235
0.00593156
0.00593096
0.00593305
0.00593119
0.00593246
0.00593419
0.0059308
0.00592788
0.00593004
0.00592811
0.00592101
0.00592277
0.00592093
0.00640779
0.00545395
0.00593227
0.00593063
0.00593251
0.00593298
0.00593134
0.0064144
0.0114458
0.0114934
0.0114969
0.0115013
0.0123772
0.0123741
0.0123742
0.0123745
0.0133943
0.0133799
0.0133788
0.0133799
0.0123746
0.0133806
0.0133806
0.0133778
0.0133787
0.0133924
0.0133945
0.01338
0.00342554
0.00391334
0.00391796
0.0039253
0.00391873
0.00390764
0.00401606
0.00401185
0.00400535
0.00401269
0.00402551
0.0034218
0.00342242
0.0034229
0.00342658
0.00342597
0.00342818
0.00342981
0.00342924
0.00343104
0.00342599
0.00342539
0.00342761
0.00342449
0.00342485
0.00342568
0.00390252
0.00389903
0.00390861
0.00391532
0.00391265
0.00391986
0.00392404
0.00392147
0.0039261
0.00391402
0.00391141
0.00391868
0.0039079
0.00390483
0.00391357
0.00403346
0.00403657
0.00402671
0.00401887
0.00402137
0.004014
0.00400871
0.00401136
0.00400662
0.00401735
0.00401991
0.00401265
0.00402196
0.00402502
0.00401631
0.00342471
0.00342986
0.0034328
0.00342669
0.00343029
0.00342165
0.00342584
0.0039046
0.00392387
0.00391328
0.00391069
0.00392928
0.00392228
0.00392064
0.00391623
0.00392468
0.00391409
0.00391148
0.00390432
0.00391603
0.00390141
0.00389802
0.00402171
0.00402476
0.00400602
0.00401651
0.00401909
0.00400079
0.00400778
0.00401002
0.00400689
0.0040174
0.00401997
0.00401759
0.00403202
0.00403527
0.00342435
0.00391726
0.00392597
0.00393115
0.00392463
0.00392074
0.0039205
0.00390766
0.00401912
0.00400839
0.0040017
0.00400685
0.00400921
0.00400896
0.00449822
0.00449728
0.00449821
0.00449599
0.00449475
0.0044929
0.00449955
0.00449725
0.00450508
0.00450416
0.00497612
0.00497751
0.00497762
0.00497731
0.00497739
0.00497693
0.00497847
0.00497808
0.00497912
0.00498033
0.00545618
0.00545446
0.0054541
0.00545424
0.00545432
0.00545472
0.00545205
0.00545237
0.00545041
0.00544908
0.00545238
0.00545264
0.00545564
0.00545396
0.00450741
0.00450722
0.00450194
0.00449946
0.00449774
0.00449424
0.00449939
0.00449713
0.00449855
0.00449761
0.00498139
0.00498369
0.00498013
0.00498039
0.0049788
0.00497739
0.00497829
0.00497793
0.00497628
0.00497765
0.00544742
0.00544415
0.00544906
0.00544862
0.00545219
0.00545281
0.00400642
0.0040153
0.00402925
0.00449813
0.00449448
0.0044985
0.00449696
0.00449345
0.00449761
0.00449458
0.00449108
0.00449504
0.00449842
0.00449488
0.00449902
0.00450578
0.0045016
0.00450583
0.00497688
0.00497735
0.00497668
0.00497765
0.00497733
0.00497664
0.00497692
0.00497863
0.00497769
0.0049786
0.00498116
0.00498014
0.0049806
0.005455
0.0054548
0.00545476
0.00545401
0.00545508
0.00545313
0.00545157
0.00545236
0.00545175
0.0054475
0.00544839
0.00544849
0.0045049
0.0045087
0.00449774
0.00450165
0.0044926
0.00449569
0.00449475
0.00449885
0.00449847
0.00449482
0.00449883
0.00498307
0.00498309
0.00498002
0.00498065
0.00497722
0.00497905
0.0049775
0.00497839
0.00497706
0.00497751
0.00544416
0.005445
0.00544824
0.00544814
0.00545261
0.00545202
0.00545273
0.00545215
0.00545444
0.00545426
0.0107274
0.0107284
0.0107292
0.0107295
0.0107249
0.010715
0.0107093
0.00592053
0.00591853
0.00592376
0.00592504
0.0059265
0.00592763
0.00592836
0.00592922
0.00593077
0.00593209
0.00593074
0.00593151
0.00593283
0.00593147
0.00593088
0.00593078
0.00593155
0.00593236
0.00593208
0.00593303
0.00592799
0.00592799
0.00592892
0.0059222
0.0059242
0.00592285
0.00640773
0.00640577
0.00640933
0.00641003
0.00641318
0.00641206
0.0064123
0.00641285
0.00641554
0.00641393
0.00641466
0.00641609
0.00641449
0.00641408
0.00641403
0.00641459
0.00641542
0.006414
0.00641466
0.00641217
0.00641211
0.00641269
0.0064081
0.00640996
0.00640789
0.00690066
0.00690022
0.00690121
0.00690111
0.00690236
0.00690136
0.00690265
0.00690256
0.00690377
0.00690346
0.00690409
0.00690378
0.00690358
0.00690351
0.00690341
0.0069034
0.00690257
0.00690248
0.00690162
0.00690124
0.00740466
0.00739958
0.00739617
0.00740042
0.00740254
0.00740263
0.00740078
0.00739693
0.00740038
0.00740548
0.00591835
0.00591777
0.00592507
0.00592334
0.00593113
0.00592936
0.00593041
0.00592838
0.00593221
0.00593295
0.005933
0.00593414
0.00593009
0.00592345
0.00640649
0.00640563
0.00641111
0.00640931
0.0064128
0.00641147
0.00641415
0.00641235
0.0064152
0.00641412
0.00641574
0.00641587
0.00641692
0.00641402
0.00640916
0.00690042
0.00690123
0.00690249
0.0069024
0.00690266
0.00690265
0.0069035
0.00690358
0.0069038
0.00690389
0.00690356
0.00690356
0.00690347
0.00690343
0.00690261
0.00690258
0.00690139
0.00690144
0.00740661
0.00740158
0.00739818
0.00739765
0.00740231
0.0073994
0.00740418
0.0073995
0.00740428
0.00739799
0.00740265
0.00739498
0.00739858
0.00739762
0.00740227
0.00740207
0.00740733
0.00740647
0.0074023
0.00739882
0.00740309
0.00740433
0.00740442
0.00740343
0.00739923
0.00740304
0.00796891
0.00795339
0.00814783
0.00813298
0.00825486
0.00816457
0.00826363
0.00826134
0.00826999
0.0082693
0.00827077
0.00826528
0.00841357
0.00871551
0.00876129
0.00966511
0.00965584
0.00740723
0.0082522
0.00815562
0.00827019
0.00827431
0.00826949
0.00827631
0.00827159
0.00827922
0.00826798
0.00826537
0.00825664
0.00818712
0.00816924
0.00879128
0.00878943
0.00878249
0.00878844
0.00875434
0.00875655
0.00873929
0.00873774
0.00859133
0.00857786
0.00964826
0.00964636
0.00964871
0.00964947
0.00964971
0.00965708
0.00965757
0.00966146
0.00966239
0.0107277
0.0107284
0.0107317
0.0115025
0.0115025
0.0115026
0.0123744
0.0123745
0.0123747
0.0123745
0.0107241
0.0107084
0.0115011
0.0114993
0.0123743
0.0123797
0.0115022
0.0115027
0.0123747
0.0115026
0.0115019
0.0115012
0.0114996
0.0123748
0.0123746
0.0123745
0.01238
0.01338
0.0133788
0.0133799
0.0133944
0.0133807
0.0133807
0.0133801
0.0133789
0.01338
0.0133946
0.00827106
0.00827337
0.00827712
0.00878673
0.00878444
0.00874546
0.00964475
0.00964712
0.00964833
0.00964891
0.00964969
0.00965543
0.0107302
0.0107308
0.0107337
0.0115031
0.0115029
0.0115021
0.012375
0.012375
0.0123746
0.00825114
0.00814689
0.00872429
0.0085548
0.00965849
0.0096644
0.0107265
0.0107113
0.0115015
0.0114999
0.0123747
0.0123802
0.0133797
0.0133791
0.013378
0.013379
0.0133931
0.00794151
0.00812125
0.00824812
0.00826006
0.00827175
0.00788161
0.00839952
0.00848674
0.00874842
0.00878709
0.00961402
0.00962028
0.00967448
0.00967582
0.00965999
0.00966004
0.00965575
0.00965671
0.00964669
0.0096491
0.0104685
0.0104826
0.010652
0.0106604
0.0106847
0.0107294
0.0107247
0.0107271
0.0107266
0.0107291
0.0114511
0.0114459
0.0114932
0.0114937
0.0114968
0.0114971
0.0115012
0.0115016
0.011502
0.0115026
0.0123769
0.0123775
0.012374
0.0123743
0.0123741
0.0123745
0.0123743
0.0123747
0.0123749
0.0133931
0.013379
0.0133788
0.0133779
0.01338
0.0133791
0.0133796
0.0077737
0.00839816
0.00850221
0.00876001
0.00879217
0.00879034
0.00878922
0.00875381
0.00873274
0.00855828
0.00965763
0.00966339
0.0145374
0.0145397
0.0145179
0.014572
0.0145397
0.0123803
0.0123748
0.0123748
0.0123744
0.0123746
0.0123804
0.012375
0.012375
0.0123745
0.0123747
0.0123748
0.0133958
0.0133806
0.013381
0.0133818
0.0133814
0.0133958
0.0133806
0.0133811
0.0133819
0.0133814
0.0133796
0.0133949
0.0133801
0.0133805
0.0133812
0.0133808
0.0133792
0.0133933
0.0133791
0.0133795
0.01338
0.0133797
0.0133782
0.0133949
0.0133801
0.0133805
0.0133813
0.0133808
0.0133791
0.0134165
0.0133943
0.0133949
0.0133961
0.0133954
0.0133929
0.0145401
0.014518
0.0145186
0.014519
0.0145166
0.0145399
0.0145177
0.0145184
0.0145188
0.0145164
0.0145389
0.0145171
0.0145177
0.0145181
0.0145157
0.0145155
0.0145161
0.0145169
0.0145139
0.0145185
0.0145188
0.0145163
0.0145405
0.0145411
0.0145381
0.012388
0.0123799
0.01238
0.012379
0.0123785
0.0123778
0.0123798
0.0123742
0.0123742
0.0123739
0.0123741
0.0123741
0.0123797
0.0123745
0.0123744
0.0123738
0.0123739
0.0123741
0.0123802
0.0123746
0.0123746
0.0123743
0.0123745
0.0123745
0.0123747
0.0134165
0.0133942
0.0133949
0.013396
0.0133954
0.0133929
0.0133949
0.0133801
0.0133805
0.0133812
0.0133808
0.0133791
0.0133933
0.0133791
0.0133795
0.01338
0.0133796
0.0133782
0.0133949
0.0133801
0.0133805
0.0133812
0.0133808
0.0133791
0.0133796
0.0133947
0.0133953
0.0133942
0.0133803
0.0133806
0.0133798
0.0133792
0.0133794
0.0133787
0.0133803
0.0133807
0.0133799
0.0133809
0.0133813
0.0133805
0.0133809
0.0145332
0.014512
0.0145097
0.0145115
0.014512
0.0167251
0.0167682
0.0167665
0.0167611
0.0168037
0.016826
0.0168245
0.0168158
0.0168091
0.0168302
0.0168288
0.0168202
0.0168264
0.0168576
0.0168561
0.0168488
0.0168348
0.0168682
0.0168666
0.0168612
0.016839
0.0168731
0.0168716
0.0168662
0.0168375
0.0168705
0.016869
0.0168638
0.0168414
0.0168735
0.0168604
0.0168544
0.016826
0.0168574
0.0168558
0.0168496
0.0167621
0.0167983
0.0167964
0.0167864
0.0145116
0.0145109
0.0145094
0.0145114
0.0145321
0.014573
0.0145405
0.0145413
0.0145417
0.0145385
0.0145325
0.014541
0.014519
0.0145196
0.0145197
0.014517
0.014512
0.0145386
0.0145163
0.0145168
0.014517
0.0145152
0.0145099
0.0145397
0.0145178
0.0145185
0.0145187
0.0145162
0.0145114
0.0145117
0.0145349
0.0145138
0.0145115
0.0145132
0.0145136
0.0145135
0.0133803
0.0133807
0.0133799
0.0133948
0.0133954
0.0133942
0.0145127
0.014511
0.0145132
0.0145345
0.0133813
0.0133805
0.0133803
0.0133807
0.0133799
0.0133792
0.0133795
0.0133788
0.012375
0.0123746
0.012375
0.0123747
0.0123749
0.0123742
0.0123747
0.0133792
0.0133787
0.0133777
0.0133786
0.0133925
0.0123774
0.0123773
0.0123743
0.012374
0.0123742
0.0123739
0.0123747
0.0123744
0.0123749
0.0123745
0.0123773
0.012374
0.0123739
0.0123744
0.0133776
0.0133786
0.0133792
0.0133803
0.0123744
0.0123798
0.0123748
0.0123743
0.0123744
0.0123798
0.0133796
0.0133785
0.0133789
0.0133798
0.0133795
0.0133784
0.0133774
0.0133778
0.0133785
0.0133796
0.0133784
0.0133788
0.0133797
0.0133923
0.0133929
0.0133942
0.0123746
0.0133803
0.013379
0.0133794
0.0133804
0.0133801
0.0133803
0.0133797
0.0133785
0.0133796
0.0133941
0.0123745
0.0133784
0.0133795
0.0133938
0.0145016
0.0145001
0.0145227
0.0145205
0.0133772
0.0133782
0.0133793
0.0133935
0.0133781
0.0133917
0.0133782
0.0133786
0.013394
0.0145015
0.0145227
0.00690247
0.00690055
0.0069012
0.00690137
0.00690243
0.00690329
0.00690339
0.00690363
0.00690372
0.00740073
0.00739633
0.00739374
0.00739734
0.00739925
0.00740404
0.00739938
0.00740417
0.00739784
0.00739468
0.00739842
0.00739729
0.00740196
0.00740145
0.0074068
0.00578531
0.00589214
0.00593001
0.00592893
0.00637982
0.00641211
0.00641225
0.00641256
0.00641524
0.00641429
0.00641506
0.00641401
0.00641556
0.0064145
0.00641574
0.00641398
0.00641681
0.0064144
0.00641422
0.00641245
0.00640991
0.00640886
0.00690336
0.00690338
0.00690258
0.00690324
0.0069024
0.00690242
0.00690127
0.00690141
0.00740251
0.00539681
0.00543869
0.00545119
0.00545201
0.00579638
0.00589631
0.00591076
0.00593106
0.00545441
0.00545504
0.00545486
0.0054549
0.00545414
0.00545527
0.00545451
0.00545222
0.0054512
0.00544691
0.00544581
0.00593231
0.00593089
0.00593289
0.00593147
0.00593308
0.00593099
0.00593274
0.00593257
0.00593081
0.00592857
0.00592413
0.00592235
0.0115014
0.0107355
0.0107292
0.0107156
0.0115028
0.0115024
0.0115029
0.00690057
0.00690117
0.00690139
0.00740544
0.0074002
0.00739725
0.00740122
0.00812007
0.00812987
0.00817381
0.00818097
0.00824779
0.00825361
0.00825705
0.00826154
0.00826949
0.00827366
0.00827001
0.00827421
0.0085329
0.0086659
0.0086872
0.0087762
0.00877171
0.00879072
0.00878514
0.00878845
0.00878287
0.00967165
0.00968423
0.0096623
0.00965863
0.00964946
0.00964685
0.00964714
0.0104919
0.01066
0.0107286
0.0107261
0.00827173
0.00827561
0.00827791
0.00825898
0.00819572
0.00878788
0.00878301
0.00877116
0.00876687
0.00871268
0.00964943
0.00964939
0.00965038
0.00966018
0.00967466
0.0107296
0.0107278
0.0107289
0.00637943
0.00641049
0.00641397
0.0133787
0.01338
0.0133795
0.0123794
0.012374
0.0123741
0.0123744
0.0123747
0.012375
0.01338
0.0133796
0.0123744
0.0123748
0.012375
0.0133806
0.0133801
0.0133806
0.0133801
0.00539817
0.00544045
0.00545239
0.00545285
0.00545461
0.00342842
0.00342984
0.00343274
0.00343022
0.00342595
0.00342569
0.00342123
0.00392047
0.00392381
0.00392921
0.00392449
0.00391392
0.00391571
0.00390118
0.00400595
0.00400071
0.00400669
0.00401722
0.00401723
0.00403179
0.00400892
0.00499452
0.00498627
0.00498253
0.00497769
0.00449442
0.00449335
0.0044918
0.00449459
0.00449885
0.00450164
0.00450628
0.00497701
0.00497685
0.00497664
0.00497603
0.00497805
0.00497918
0.0049813
0.00498242
0.00390226
0.00391709
0.00392507
0.003916
0.00391042
0.00402944
0.00402241
0.00402141
0.00401641
0.00401129
0.00400813
0.00402007
0.00401504
0.00449336
0.00449549
0.00449398
0.00449795
0.00499688
0.00498735
0.00497853
0.00497854
0.00539816
0.00543952
0.0054516
0.0054522
0.0034247
0.00342485
0.00342469
0.00342625
0.00342492
0.00342624
0.00343013
0.00342662
0.00342151
0.00391021
0.00390418
0.0039102
0.00391536
0.0039103
0.00391535
0.00392357
0.00391605
0.00390399
0.00401936
0.00401433
0.00400634
0.00401509
0.00402887
0.00402534
0.00401933
0.00402512
0.00401911
0.00449836
0.00449808
0.00449686
0.00449432
0.00449812
0.00450573
0.00497771
0.00497754
0.00497752
0.00497676
0.00497897
0.00498217
0.00545413
0.00545455
0.00579186
0.00589327
0.0059304
0.00342682
0.00342444
0.00391682
0.00390576
0.00392082
0.00391167
0.0039272
0.00392176
0.00392158
0.00391242
0.00391159
0.00389914
0.00401261
0.0040236
0.00400902
0.00401809
0.00400345
0.00400878
0.00400985
0.00401892
0.00402155
0.00403383
0.00342433
0.00342193
0.00342939
0.00342614
0.00343191
0.0034298
0.00342883
0.00342558
0.00342695
0.00342458
0.00391256
0.00392271
0.003928
0.00392204
0.00392154
0.00391236
0.00391705
0.00390599
0.00402273
0.00401115
0.00400471
0.00400981
0.00401887
0.00401286
0.00402385
0.00449603
0.0044948
0.00449203
0.00449605
0.00449919
0.00450271
0.00450507
0.00497726
0.00497701
0.00497669
0.00497776
0.00498
0.00497959
0.00545464
0.00545448
0.00545379
0.00545266
0.00544937
0.00545019
0.0059193
0.00592577
0.00592813
0.00592986
0.00593131
0.00593204
0.00593217
0.00593352
0.00592958
0.00592825
0.00592359
0.00592404
0.00640632
0.00640714
0.00641058
0.00640951
0.0064144
0.00641338
0.00641439
0.00641496
0.00641525
0.00641512
0.00641395
0.00641633
0.00641518
0.00641323
0.00641205
0.00640842
0.00640911
0.00690019
0.00690042
0.00690111
0.00690109