/*--------------------------------*- C++ -*----------------------------------*\
  =========                 |
  \\      /  F ield         | OpenFOAM: The Open Source CFD Toolbox
   \\    /   O peration     | Website:  https://openfoam.org
    \\  /    A nd           | Version:  8
     \\/     M anipulation  |
\*---------------------------------------------------------------------------*/
FoamFile
{
    version     2.0;
    format      ascii;
    class       volScalarField;
    location    "0";
    object      omega;
}
// * * * * * * * * * * * * * * * * * * * * * * * * * * * * * * * * * * * * * //

dimensions      [0 0 -1 0 0 0 0];

internalField   nonuniform List<scalar> 
267833
(
3.17224
3.16516
3.16637
3.16545
3.16683
2.75086
2.73406
2.73688
2.74374
2.74139
3.18051
3.17205
3.17338
3.17161
3.17358
3.17001
3.17323
3.16388
3.16511
3.16674
3.16649
3.16233
3.16885
3.16063
3.16149
3.16289
3.16252
3.1596
3.17317
3.16382
3.16505
3.16668
3.16642
3.16227
2.76097
2.74056
2.74376
2.7513
2.74876
2.73703
2.74545
2.73053
2.73285
2.73861
2.73656
2.728
2.73664
2.72542
2.72719
2.73056
2.72929
2.72402
2.74575
2.73085
2.73317
2.73893
2.7369
2.72836
2.64365
2.65775
2.655
2.64798
2.65049
2.66067
2.65436
2.66419
2.66223
2.65706
2.65891
2.6662
2.6617
2.66891
2.66757
2.66418
2.66538
2.67035
2.65486
2.66465
2.6627
2.65757
2.65942
2.6667
3.16341
3.16681
3.1634
3.16638
3.16222
3.16246
3.15954
3.16642
3.16226
3.17353
3.16997
2.73104
2.75092
2.73412
2.73694
2.7438
2.74145
2.7311
2.74593
2.73104
2.73335
2.73912
2.73709
2.72856
2.73694
2.72574
2.7274
2.73102
2.72977
2.72424
2.74573
2.73084
2.73316
2.73892
2.73689
2.72835
2.76137
2.74096
2.74417
2.75169
2.74916
2.73745
3.16664
3.16589
3.16291
3.16208
3.16668
3.17111
2.73938
2.73541
2.73104
2.72857
2.73918
2.75199
3.17115
3.17389
3.17
3.16675
3.16599
3.16234
3.16298
3.16211
3.15961
3.16669
3.16594
3.16228
3.16512
3.16695
3.16342
3.1651
3.16693
3.16341
2.7516
2.74654
2.73883
2.73484
2.73097
2.72821
2.7392
2.73522
2.74404
2.73938
2.7441
2.73944
2.64777
2.65267
2.65679
2.66039
2.66361
2.66636
2.65733
2.66092
2.65334
2.6577
2.65778
3.1739
3.16599
3.16214
3.16593
2.74653
2.73486
2.72822
2.73522
2.65258
2.6604
2.66637
2.66092
3.16207
3.16592
3.17385
2.73541
2.72857
2.7352
2.74693
3.16694
3.16692
2.73937
2.73943
3.16588
2.65769
0.883916
0.88276
0.882884
0.883106
0.883041
0.882601
0.882974
0.883802
0.882687
0.882801
0.883026
0.882957
0.882552
0.883412
0.88243
0.882519
0.8827
0.88289
0.882327
0.884156
0.883036
0.883153
0.883394
0.883332
0.882926
0.886077
0.884567
0.884722
0.885008
0.884954
0.884434
0.813058
0.813145
0.813132
0.812944
0.813063
0.813138
0.8131
0.813223
0.813192
0.813187
0.813137
0.813161
0.813184
0.813348
0.813207
0.813294
0.813186
0.813277
0.813198
0.813362
0.813328
0.813324
0.813275
0.813299
0.813321
0.813432
0.813552
0.813535
0.813292
0.813447
0.813553
0.74513
0.744857
0.745154
0.745148
0.745148
0.745143
0.745161
0.744924
0.745178
0.745175
0.745203
0.745174
0.745181
0.744892
0.745189
0.745183
0.745183
0.745178
0.745196
0.74449
0.74492
0.74491
0.744916
0.744906
0.744935
0.887936
0.886268
0.886433
0.886727
0.88667
0.886117
0.884936
0.883812
0.883933
0.88419
0.884136
0.883727
0.883763
0.882778
0.882871
0.883667
0.883019
0.8827
0.884086
0.882986
0.8831
0.883333
0.883273
0.882877
0.883218
0.883988
0.882836
0.882961
0.883184
0.883122
0.882685
0.883059
0.813534
0.813675
0.813654
0.813371
0.81355
0.813676
0.813523
0.813492
0.813487
0.813436
0.813462
0.813489
0.813518
0.813341
0.81334
0.813322
0.813329
0.813335
0.813345
0.813316
0.813311
0.813261
0.813285
0.813311
0.813298
0.813101
0.813188
0.813175
0.812987
0.813107
0.813182
0.813144
0.745142
0.8866
0.884085
0.882977
0.813612
0.813319
0.813617
0.813681
0.813476
0.813432
0.813479
0.813493
0.813457
0.813319
0.813334
0.813336
0.813254
0.813299
0.813312
0.744917
0.744928
0.744914
0.744946
0.745212
0.745215
0.745209
0.745229
0.745233
0.74521
0.745231
0.745242
0.745175
0.745178
0.745173
0.745192
0.676848
0.677555
0.677612
0.677547
0.677508
0.812945
0.813143
0.81318
0.745152
0.74514
0.74516
1.46593
1.46585
1.46583
1.46567
1.46627
1.46612
1.46588
1.46581
1.46627
1.46618
1.46616
1.46601
1.46637
1.46677
1.46672
1.46592
1.35505
1.35644
1.35617
1.35559
1.35617
1.3571
1.35691
1.3566
1.35527
1.35665
1.35638
1.3558
1.35435
1.35595
1.35561
1.35513
1.19551
1.19552
1.19475
1.19611
1.19473
1.19495
1.19536
1.19524
1.19447
1.1953
1.19405
1.19432
1.19452
1.19454
1.194
1.19595
1.19456
1.19478
1.19519
1.19509
1.19432
1.19702
1.1955
1.19577
1.19598
1.19606
1.19522
1.11416
1.11432
1.11531
1.11379
1.11509
1.11485
1.11431
1.11451
1.11539
1.11403
1.11501
1.11485
1.115
1.11515
1.1158
1.11295
1.11432
1.11408
1.11355
1.11375
1.11465
1.11085
1.11253
1.11222
1.11158
1.1117
1.11278
0.999291
0.999283
0.999673
0.999581
0.999565
0.999146
0.999264
0.999258
0.999299
0.9993
0.999337
0.998958
0.998446
0.998459
0.999139
0.99917
0.999248
0.997932
0.998127
0.99812
0.99816
0.998163
0.99821
0.996668
0.996774
0.996764
0.996706
0.996648
0.996622
1.46599
1.4655
1.46582
1.46578
1.46512
1.46539
1.46571
1.46567
1.465
1.35578
1.3553
1.35664
1.35606
1.35712
1.35668
1.35525
1.35664
1.35637
1.35578
1.35474
1.3561
1.3558
1.35534
1.35467
1.35603
1.35573
1.35526
1.19706
1.19559
1.19589
1.19618
1.19629
1.19547
1.19583
1.19446
1.19468
1.19513
1.19505
1.19432
1.19514
1.194
1.19407
1.19447
1.19438
1.19382
1.19596
1.19456
1.19478
1.1952
1.19508
1.19432
1.19625
1.19498
1.19522
1.19545
1.19546
1.19468
1.19631
1.19505
1.19528
1.10954
1.11073
1.11039
1.10928
1.109
1.10992
1.11193
1.11329
1.11306
1.11246
1.11257
1.11339
1.113
1.11398
1.11383
1.11342
1.11439
1.11505
1.11304
1.11437
1.11413
1.11361
1.11381
1.11469
1.11334
1.11473
1.11445
1.11391
1.11408
1.11508
1.1136
1.11498
1.11471
0.992641
0.992323
0.992163
0.991097
0.990856
0.99071
0.995515
0.995671
0.995648
0.995526
0.995376
0.995317
0.9977
0.996423
0.996448
0.997937
0.99797
0.996129
0.998158
0.998285
0.99829
0.998351
0.998359
0.998375
0.999189
0.9992
0.999201
0.999367
0.999516
0.999513
0.999511
1.59385
1.59372
1.59384
1.5926
1.59271
1.59173
1.59188
1.59195
1.59148
1.59046
1.59057
1.59074
1.5917
1.59073
1.59086
1.59089
1.46664
1.46708
1.46703
1.46622
1.46669
1.4666
1.46659
1.46645
1.46668
1.46655
1.46622
1.46616
1.46624
1.46616
1.46614
1.35453
1.35612
1.35554
1.35691
1.35644
1.35751
1.74292
1.74158
1.74168
1.7397
1.73822
1.73669
1.7369
1.7369
1.59056
1.59036
1.59046
1.58958
1.5904
1.5902
1.59029
2.65059
2.66222
2.65985
2.65362
2.65586
2.34596
2.34894
2.34818
2.34691
2.34717
2.10008
2.10087
2.10065
2.09976
2.10029
2.10108
2.10086
1.90006
1.90061
1.9006
1.89879
1.89996
1.9005
1.90049
1.73411
1.73365
1.7338
1.73284
1.73392
1.73345
1.7336
2.3376
2.34205
2.34119
2.3405
2.34126
2.34473
2.34403
2.34716
2.34645
2.34493
2.34552
2.34815
2.34828
2.3506
2.35007
2.34879
2.34795
2.35116
2.3462
2.3492
2.34851
2.34695
2.34744
2.34992
2.08825
2.09153
2.09196
2.09076
2.0936
2.09603
2.09495
2.09633
2.09614
2.0961
2.0969
2.09813
2.09763
2.10014
2.09786
2.09947
2.09832
2.10054
2.09984
2.10025
2.10007
2.09953
2.09978
2.10052
2.10017
1.9119
1.91007
1.90928
1.90686
1.90638
1.90462
1.90466
1.90378
1.90437
1.9014
1.90147
1.90144
1.90195
1.90122
1.90128
1.90098
1.90007
1.73693
1.73399
1.73578
1.73584
1.73559
1.73423
1.73442
1.73451
1.5912
1.5902
1.59034
1.59036
1.59089
1.58987
1.58998
1.59012
1.59178
1.59078
1.59092
1.59096
1.59274
1.59259
1.59269
1.59156
1.58941
2.3478
2.34449
2.65067
2.6623
2.65993
2.65371
2.65594
2.66479
2.65512
2.66491
2.66295
2.65784
2.65969
2.66696
2.66217
2.66898
2.66783
2.66426
2.66546
2.67063
2.65485
2.66465
2.6627
2.65757
2.65942
2.6667
2.64452
2.65847
2.65574
2.64875
2.65122
2.66131
2.34614
2.34913
2.34837
2.3471
2.34737
2.34689
2.3499
2.34922
2.34767
2.34817
2.35065
2.34915
2.35145
2.35092
2.34918
2.34958
2.35201
2.34608
2.34911
2.34841
2.34685
2.34734
2.34985
2.34238
2.3459
2.34501
2.34368
2.34398
2.34703
2.09998
2.10039
2.10076
2.10119
2.10101
2.10044
2.10066
2.10137
2.10062
2.10077
2.1013
2.10085
2.10102
2.10163
2.09947
2.09999
2.09979
2.09925
2.09954
2.10035
2.09978
2.09716
2.09843
2.09817
2.09664
2.09769
2.09912
2.09834
1.89868
1.89996
1.90132
1.90059
1.90065
1.90038
1.90058
1.90047
1.90133
1.90092
1.90095
1.90045
1.90049
1.90035
1.90229
1.90147
1.90154
1.90122
1.90134
1.90113
1.90132
1.90332
1.90371
1.90365
1.90172
1.90275
1.903
1.90285
1.73264
1.73482
1.73343
1.73362
1.7337
1.73437
1.73361
1.73374
1.73392
1.73579
1.73438
1.73458
1.73469
1.73787
1.73735
1.73752
1.73627
2.66471
2.3498
2.35
2.10107
2.10129
1.90051
1.9004
2.6576
2.66119
2.66431
2.65732
2.64842
2.10062
2.10083
1.90033
1.90064
1.90047
2.65343
2.34298
2.34634
2.34858
2.34791
2.34193
2.34518
2.34873
2.34688
2.0946
2.09682
2.0975
2.09831
2.09875
2.09925
2.09962
2.10009
2.10041
1.9037
1.90218
1.90161
1.90103
1.90043
2.34222
2.34609
2.34958
2.3479
2.09545
2.0976
2.09877
2.09999
1.90239
1.90224
1.90109
1.90079
2.66119
2.66665
2.66092
2.65327
2.3471
2.34862
2.34761
2.35046
2.34962
2.34678
2.34388
2.09989
2.10041
2.10035
2.09943
2.09724
1.89831
1.90034
1.90042
1.90094
1.90048
2.10083
2.10059
1.90065
1.90083
2.65777
2.34758
2.34689
2.34777
2.10041
2.09966
2.10062
1.89841
1.90033
0.882894
0.813172
0.88666
0.884173
0.883669
0.88331
0.886759
0.886592
0.886114
0.884246
0.884102
0.883748
0.883718
0.883618
0.882722
0.883371
0.883236
0.882898
0.883199
0.883068
0.882695
0.883112
0.882978
0.882605
0.8129
0.813098
0.813135
0.745139
0.745127
0.745146
0.677505
0.883041
0.882902
0.882561
0.882595
0.882717
0.882868
0.882337
0.883276
0.883434
0.883295
0.882947
0.884893
0.885062
0.884908
0.813128
0.81317
0.813182
0.813196
0.81318
0.813195
0.813197
0.813312
0.813269
0.813313
0.813323
0.813501
0.813247
0.813504
0.813556
0.745141
0.745145
0.745139
0.745158
0.74517
0.7452
0.745194
0.745178
0.745176
0.74518
0.745174
0.745193
0.744902
0.744913
0.744901
0.744933
0.677539
1.46576
1.46586
1.46607
1.46591
1.46611
1.4662
1.46648
1.46682
1.35577
1.35674
1.35675
1.35746
1.35598
1.35694
1.35519
1.35633
1.19537
1.19544
1.11426
1.1145
0.99928
0.99956
1.4668
1.46717
1.467
1.46655
1.46665
1.46661
1.46651
1.46661
1.46623
1.46608
1.46618
1.46613
1.46557
1.46584
1.46571
1.46545
1.46573
1.4656
1.35537
1.35651
1.35552
1.35623
1.35719
1.35639
1.35682
1.35771
1.35713
1.35596
1.35693
1.35613
1.35542
1.35645
1.35558
1.35536
1.35638
1.35551
1.1963
1.19499
1.19431
1.19497
1.10879
1.11264
1.11353
1.11398
0.990422
0.995185
0.996168
0.998358
1.59226
1.59349
1.59196
1.592
1.5908
1.59073
1.59092
1.591
1.58943
1.59046
1.58925
1.59028
1.59036
1.59044
1.59053
1.59009
1.59099
1.59107
1.59138
1.59266
1.4661
1.467
1.46717
1.46648
1.46662
1.46667
1.46619
1.46624
1.46599
1.46614
1.46498
1.46572
1.46487
1.4656
1.46567
1.46582
1.46604
1.46611
1.46602
1.46617
1.46579
1.46667
1.35531
1.35554
1.35653
1.35602
1.35639
1.35719
1.35665
1.35694
1.35752
1.35575
1.35613
1.35533
1.35557
1.35527
1.35551
1.35557
1.35595
1.35657
1.35674
1.35614
1.35533
1.19565
1.19444
1.1939
1.19435
1.10926
1.10773
1.11314
1.11382
1.11468
0.989725
0.989109
0.994855
0.994539
0.997979
0.99832
1.46581
1.4661
1.46616
1.46666
1.35595
1.35688
1.35615
1.35577
1.35534
1.35512
1.19543
1.19538
1.19469
1.19549
1.19544
1.19512
1.19536
1.19512
1.19434
1.19464
1.19445
1.19498
1.19525
1.19501
1.19602
1.19607
1.1961
1.11393
1.11428
1.11509
1.11416
1.11451
1.11532
1.11468
1.11432
1.11469
1.11477
1.11501
1.11475
1.11393
1.11354
1.1139
1.1118
1.11134
1.11161
0.99945
0.999299
0.999307
0.999733
0.999581
0.999592
0.999314
0.999353
0.999333
0.999361
0.999199
0.99919
0.998482
0.998156
0.998142
0.998078
0.996525
0.99635
0.996219
1.1964
1.19643
1.1953
1.19509
1.19453
1.19435
1.19523
1.19499
1.10813
1.1082
1.11213
1.1124
1.11317
1.11333
1.11361
1.11397
0.989543
0.989631
0.994986
0.994782
0.997878
0.997876
0.998369
0.99831
1.7336
1.73376
1.73381
1.73465
1.73696
1.73857
1.73617
1.73523
1.73452
1.73382
1.59348
1.59342
1.59368
1.59205
1.59163
1.59204
1.59074
1.59039
1.59142
1.59098
1.5906
1.59099
1.59025
1.90608
1.90535
1.90501
1.90336
1.90274
1.90288
1.90135
1.90104
1.90123
1.90113
1.90099
1.90114
1.73998
1.73921
1.73955
1.73766
1.73681
1.73601
1.73657
1.73634
1.73436
1.7352
1.73427
1.73545
1.73459
1.73401
1.73456
1.73449
1.7336
1.59044
1.59004
1.59043
1.59011
1.58977
1.59048
1.59105
1.59065
1.59106
1.59244
1.59243
1.59019
1.59044
1.59008
1.59001
1.73247
1.73371
1.73338
1.73464
1.73572
1.73339
1.73378
1.7332
1.73376
1.73332
1.73284
1.73385
1.73475
1.73414
1.73471
1.73711
1.73682
1.73724
1.5927
1.90044
1.7334
1.73381
1.73269
1.73319
1.7336
1.59027
0.813558
0.813468
0.813454
0.813286
0.744915
0.745209
0.745204
0.745172
0.676704
0.677456
0.677527
0.677448
0.745142
0.677402
0.6774
0.677604
0.677547
0.676843
0.676675
0.677437
3.16638
2.73697
2.73337
2.72741
2.73314
2.74414
2.65995
2.66297
2.66762
2.66267
2.65575
3.17357
3.1716
3.17337
3.1665
3.16675
3.16513
3.16254
3.16292
3.1615
3.16644
3.16671
3.16509
3.16685
3.16547
3.1664
2.74878
2.75133
2.74381
2.73652
2.73855
2.73278
2.72926
2.73079
2.72717
2.7369
2.73893
2.73316
2.7414
2.74376
2.7369
2.65066
2.64824
2.65529
2.65888
2.65703
2.66219
2.66536
2.66377
2.66716
2.65941
2.65756
2.66268
2.65587
2.65364
2.65986
3.16545
3.16223
3.15958
3.16593
3.16227
3.17386
3.16998
2.74382
2.72856
2.7371
2.73913
2.72424
2.72978
2.73103
2.7352
2.72835
2.73688
2.73891
2.74693
2.73743
2.74914
2.75167
2.65596
2.65372
2.66697
2.6597
2.65785
2.67063
2.66567
2.66425
2.66669
2.6594
2.65755
2.6613
2.65121
2.64875
3.16683
2.73704
2.72797
2.72371
2.72836
2.73105
2.73111
2.74146
2.66073
2.66618
2.67034
2.6667
2.66471
2.6648
2.3471
2.34837
2.34766
2.34921
2.34967
2.35091
2.3469
2.34848
2.34417
2.34562
2.09997
2.10085
2.10046
2.10103
2.10052
2.10095
2.0997
2.10033
2.09811
2.09951
1.89868
1.9005
1.90036
1.90062
1.90038
1.9004
1.90075
1.90097
1.9002
1.90224
1.90066
1.90089
1.89876
1.90057
2.34299
2.34412
2.34564
2.34731
2.34804
2.35015
2.34699
2.34855
2.3469
2.34817
2.09679
2.09759
2.0985
2.09883
2.09943
2.10062
2.09981
2.10042
2.09977
2.10066
1.90095
1.90374
1.90136
1.90193
1.90079
1.90075
2.66665
2.66091
2.65327
2.34777
2.35
2.34737
2.34862
2.35065
2.34817
2.34994
2.35201
2.34961
2.34782
2.34987
2.34738
2.34466
2.34722
2.34432
2.10129
2.10039
2.10137
2.10068
2.10068
2.10111
2.10106
2.09994
2.10051
2.09985
2.09871
2.09963
2.09859
1.9004
1.89996
1.90046
1.90056
1.90033
1.90067
1.90116
1.90096
1.90101
1.90247
1.90248
1.90183
2.3456
2.34289
2.3484
2.34601
2.35118
2.34926
2.34994
2.34747
2.34757
2.3498
2.34717
2.09792
2.09713
2.09895
2.09845
2.10073
2.09937
2.10063
2.09998
2.10108
2.10018
1.90355
1.90268
1.90192
1.90182
1.90084
1.90092
1.90086
1.9009
1.90049
1.90005
0.88314
0.883049
0.882974
0.882925
0.883371
0.884454
0.884989
1.73652
1.73794
1.73573
1.73549
1.73495
1.73468
1.73441
1.73429
1.73362
1.73287
1.73383
1.73341
1.73267
1.73363
1.73379
1.73373
1.73365
1.73333
1.73336
1.73315
1.73463
1.73452
1.73438
1.73653
1.73546
1.73655
1.59214
1.59321
1.59184
1.59176
1.59078
1.59119
1.59094
1.59091
1.58961
1.5905
1.5901
1.58943
1.59032
1.59046
1.59039
1.59038
1.59013
1.59053
1.59041
1.59108
1.591
1.59096
1.59237
1.59148
1.59258
1.46625
1.46707
1.46649
1.46664
1.4662
1.46658
1.46602
1.46618
1.46514
1.46581
1.46502
1.46569
1.46569
1.46585
1.46584
1.46591
1.46605
1.4662
1.46596
1.46676
1.35583
1.35664
1.35731
1.35635
1.3558
1.35573
1.35616
1.35704
1.35636
1.35561
1.73802
1.73784
1.73556
1.73599
1.73374
1.7342
1.73397
1.73451
1.73342
1.7332
1.73321
1.73285
1.73407
1.73648
1.59321
1.59311
1.59159
1.59196
1.59112
1.59138
1.59062
1.59102
1.5902
1.59028
1.59002
1.59005
1.58979
1.59066
1.59239
1.46682
1.46658
1.46627
1.46623
1.4662
1.46611
1.46585
1.46559
1.46573
1.46547
1.46587
1.46577
1.46592
1.46587
1.46622
1.46613
1.46684
1.4665
1.35539
1.35623
1.35681
1.35692
1.35595
1.35645
1.35542
1.35638
1.35535
1.35674
1.35577
1.35746
1.35661
1.35693
1.35597
1.35632
1.35518
1.35533
1.35605
1.35666
1.35577
1.35533
1.35526
1.35558
1.35646
1.35578
1.19658
1.1966
1.19527
1.19544
1.19447
1.19464
1.19513
1.19526
1.19545
1.19551
1.19536
1.19459
1.11209
1.11433
1.11378
0.995678
0.998268
1.35512
1.19529
1.19622
1.19546
1.19475
1.19552
1.19447
1.19524
1.194
1.19447
1.19436
1.19516
1.19532
1.19623
1.11411
1.11434
1.1154
1.11453
1.11524
1.11461
1.11463
1.1137
1.11257
1.1113
0.999337
0.999628
0.999344
0.999266
0.999199
0.998131
0.998014
0.996241
0.995997
0.883116
0.883048
0.882726
0.812936
0.813133
0.813183
0.745149
0.745136
0.745142
0.745172
0.883447
0.885057
0.813278
0.813298
0.745177
0.74491
0.813103
0.813058
0.745129
0.813157
0.813279
0.813301
0.813453
0.745139
0.745169
0.745174
0.744902
0.677441
0.677519
0.677448
0.676699
0.677381
0.677378
0.677421
0.677502
0.677429
0.67667
1.19528
1.19495
1.19434
1.11474
1.1149
1.11481
0.999736
0.999587
0.999357
0.999327
0.999178
0.998324
0.882896
0.882827
0.88255
0.813124
0.813182
0.813296
0.745127
0.74514
0.745193
1.19489
1.19603
1.11401
1.11154
0.997886
0.995717
0.883217
0.884783
0.813327
0.813544
0.745175
0.744902
0.677441
0.677479
0.677558
0.677487
0.676756
1.19636
1.19504
1.19429
1.19486
1.19522
1.10795
1.11222
1.11314
1.11409
1.1145
0.988514
0.988969
0.994343
0.994217
0.997662
0.997676
0.998235
0.998146
0.999435
0.999275
0.886713
0.886417
0.884242
0.883997
0.883717
0.882937
0.883384
0.883161
0.883209
0.882989
0.813382
0.813667
0.813444
0.813497
0.813443
0.813474
0.813262
0.813313
0.812982
0.81317
0.744923
0.744916
0.745212
0.74521
0.745208
0.745203
0.745175
0.745174
0.74514
0.676761
0.677495
0.67751
0.677566
0.677429
0.677487
0.677444
1.10732
1.11176
1.11286
1.11356
1.11395
1.11419
1.11435
1.11446
1.11348
1.11102
0.997959
0.995798
0.610387
0.61026
0.611315
0.608772
0.610323
0.744861
0.745154
0.745148
0.745155
0.745146
0.744848
0.745141
0.745135
0.745143
0.745134
0.745149
0.676691
0.67748
0.677451
0.677388
0.677407
0.676688
0.677477
0.677448
0.677385
0.677404
0.677508
0.676744
0.677514
0.677487
0.677428
0.677445
0.677542
0.676851
0.677583
0.677559
0.677509
0.67753
0.677606
0.676752
0.677521
0.677494
0.677435
0.677453
0.677549
0.675649
0.676802
0.676763
0.676676
0.676703
0.676845
0.61019
0.611266
0.611228
0.611143
0.61117
0.61019
0.611264
0.611227
0.611142
0.611169
0.610257
0.611313
0.611277
0.611195
0.611221
0.611404
0.611371
0.611299
0.61132
0.611279
0.611198
0.611223
0.610275
0.610166
0.610201
0.744507
0.744937
0.744927
0.744932
0.744922
0.74495
0.744929
0.745225
0.745219
0.745219
0.745214
0.745232
0.744936
0.745214
0.74521
0.745241
0.745236
0.745245
0.74489
0.745188
0.745181
0.745182
0.745177
0.745195
0.745162
0.675655
0.676808
0.676769
0.676681
0.676709
0.67685
0.67676
0.67753
0.677502
0.677443
0.677461
0.677557
0.676866
0.677597
0.677574
0.677523
0.677538
0.677614
0.676752
0.677521
0.677494
0.677435
0.677453
0.677549
0.677511
0.676732
0.676673
0.676729
0.677476
0.677436
0.677474
0.677544
0.67751
0.677549
0.677468
0.677429
0.677466
0.677424
0.677381
0.677421
0.677421
0.610161
0.611194
0.611292
0.611191
0.611136
0.503249
0.500815
0.500885
0.50104
0.500902
0.499197
0.499253
0.499379
0.500714
0.499052
0.499104
0.499221
0.500884
0.499178
0.499234
0.499361
0.500971
0.499242
0.4993
0.499432
0.500967
0.499238
0.499296
0.499428
0.500872
0.499166
0.499221
0.499349
0.500687
0.499022
0.499085
0.499203
0.500885
0.499179
0.499235
0.499361
0.503235
0.5008
0.500869
0.501026
0.611304
0.61135
0.611438
0.611353
0.610375
0.608775
0.610326
0.610278
0.610169
0.610204
0.610378
0.610263
0.611318
0.611283
0.611201
0.611227
0.611356
0.61039
0.611407
0.611374
0.611299
0.611325
0.611441
0.61026
0.611315
0.611279
0.611198
0.611224
0.611353
0.611305
0.610234
0.611249
0.611343
0.611246
0.611193
0.611192
0.677468
0.677428
0.677466
0.676727
0.676668
0.676725
0.611243
0.61134
0.611246
0.610232
0.677378
0.677419
0.677461
0.677421
0.677459
0.677537
0.677502
0.677534
0.745133
0.745136
0.745146
0.745144
0.74517
0.745199
0.745181
0.67747
0.677507
0.677582
0.677514
0.676795
0.744927
0.744923
0.745217
0.745214
0.745234
0.745236
0.74518
0.745177
0.745146
0.745149
0.744925
0.745215
0.745237
0.745179
0.67759
0.677514
0.677473
0.677392
0.745179
0.744909
0.745145
0.745201
0.74518
0.74491
0.677433
0.677512
0.677485
0.677427
0.677446
0.677519
0.677587
0.677563
0.677514
0.677441
0.677519
0.677492
0.677434
0.6768
0.676761
0.676676
0.745137
0.677391
0.677475
0.677446
0.677384
0.677405
0.67739
0.677432
0.677512
0.677439
0.676684
0.74515
0.677524
0.677454
0.676704
0.611227
0.611357
0.610204
0.610379
0.677609
0.677539
0.677471
0.676729
0.677552
0.676847
0.677544
0.67751
0.676685
0.611199
0.610167
1.46605
1.46699
1.46655
1.46651
1.46615
1.46583
1.46556
1.46572
1.46545
1.35661
1.35726
1.35778
1.35694
1.35643
1.35541
1.35636
1.35534
1.35673
1.35747
1.3566
1.35696
1.35599
1.3564
1.35525
1.74182
1.73655
1.73406
1.73436
1.59302
1.59124
1.59115
1.59087
1.59023
1.59046
1.59016
1.59023
1.59001
1.59008
1.59001
1.59041
1.58973
1.59039
1.5905
1.59092
1.59211
1.59215
1.46584
1.46575
1.46612
1.46583
1.46616
1.46607
1.46673
1.46639
1.35576
1.91325
1.90555
1.90135
1.90106
1.74146
1.73577
1.73493
1.73376
1.90002
1.90037
1.89994
1.90042
1.90053
1.90028
1.90042
1.90114
1.90132
1.90322
1.90296
1.73333
1.73354
1.73317
1.73337
1.73314
1.73372
1.73324
1.73324
1.73386
1.7345
1.73647
1.73674
0.813312
0.882345
0.882892
0.884296
0.813186
0.813159
0.813114
1.46682
1.46651
1.46646
1.35562
1.35647
1.35696
1.35614
1.19613
1.1953
1.195
1.19433
1.19438
1.19392
1.19502
1.19437
1.1954
1.19471
1.19545
1.19476
1.10992
1.11205
1.11301
1.11369
1.1144
1.1142
1.11501
1.11449
1.1153
0.991438
0.994583
0.99743
0.997907
0.999155
0.999539
0.999543
0.886349
0.883938
0.882941
0.883192
1.19514
1.19449
1.19402
1.19439
1.19528
1.11462
1.11533
1.11499
1.11433
1.11227
0.999199
0.999223
0.999086
0.997723
0.995865
0.882915
0.883082
0.883007
1.59326
1.59164
1.59054
0.677514
0.677433
0.677471
0.744936
0.745221
0.745216
0.745184
0.745179
0.745145
0.677425
0.677464
0.745158
0.745146
0.745133
0.677385
0.677426
0.677382
0.677423
1.9122
1.90512
1.90106
1.90093
1.90045
3.16341
3.16223
3.15956
3.16225
3.16641
3.16993
3.1735
2.7311
2.72854
2.72422
2.72833
2.73687
2.73746
2.74917
2.66695
2.67061
2.66669
2.65941
2.66137
2.65129
2.66478
2.09008
2.09609
2.09794
2.10061
2.34999
2.35066
2.35158
2.35002
2.34749
2.34728
2.34423
2.10111
2.10129
2.10141
2.10169
2.10041
2.09961
2.09912
2.09769
2.74661
2.73488
2.72824
2.7352
2.73936
2.64789
2.65272
2.65689
2.6605
2.66369
2.66603
2.65732
2.66092
2.34022
2.34637
2.34863
2.34804
2.08876
2.09546
2.10005
2.10009
1.91263
1.90538
1.90126
1.90108
3.16694
3.16511
3.16693
3.16589
3.16664
3.16588
3.16206
3.16591
3.17382
2.73943
2.7441
2.73942
2.7354
2.73937
2.73539
2.7287
2.73518
2.74694
2.65759
2.66118
2.66663
2.66091
2.65334
2.65333
2.65768
2.65342
2.65776
2.34759
2.34776
2.34864
2.35006
2.34797
2.34475
2.10045
2.10063
2.10086
2.10122
2.09985
2.09828
1.90037
1.9003
1.74179
1.73633
1.73395
3.16517
3.1662
2.73415
2.74293
2.73105
2.73835
2.7259
2.73039
2.73083
2.73812
2.74093
2.75072
2.66233
2.65457
2.66492
2.65855
2.66896
2.66492
2.66463
2.65825
2.65847
2.64971
3.17203
3.17262
3.16389
3.1667
3.16066
3.16281
3.16386
3.16666
3.1652
3.16622
2.7406
2.73046
2.72566
2.73031
2.73084
2.73815
2.73408
2.74287
2.65801
2.66415
2.6685
2.66464
2.65827
2.66224
2.65448
2.34913
2.34989
2.35143
2.34918
2.34714
2.34651
2.34437
2.10108
2.10122
2.10111
2.10053
2.09981
2.09858
1.90051
1.90056
1.90055
1.9009
1.90225
1.9009
1.73777
1.73527
1.73453
1.7341
1.73368
1.73348
1.73346
1.73301
1.73418
1.73445
1.73636
1.73569
1.5931
1.59242
1.59161
1.59176
1.59052
1.59078
1.59041
1.59023
1.58979
1.59025
1.59043
1.58992
1.59015
1.59082
1.591
1.59247
1.59181
1.46712
1.46651
1.46665
1.4665
1.46659
1.46649
1.4662
1.46606
1.46585
1.46539
1.46573
1.46527
1.46587
1.46573
1.46616
1.46606
1.46622
1.46608
1.46681
1.46623
1.35617
1.35537
1.35691
1.35614
1.35751
1.35693
1.35662
1.35584
1.35609
1.35534
1.35603
1.35528
1.35643
1.35565
1.35723
1.35665
1.35663
1.35585
1.35595
1.35515
1.90082
1.90058
2.34503
2.34802
2.35068
2.34924
2.34893
2.09742
2.09905
2.09986
2.10061
2.10089
1.90424
1.90185
1.90069
1.19504
1.19553
1.19474
1.19533
1.19419
1.19463
1.11502
1.11425
1.11514
1.11441
1.11497
1.11508
0.999591
0.999694
0.999335
0.999333
0.998309
0.998299
0.882772
0.883107
0.882714
0.883035
0.882461
0.882717
0.813136
0.813008
0.813186
0.81315
0.813202
0.813193
1.19468
1.19529
1.19577
1.19632
1.11425
1.11346
1.11186
1.11086
0.997896
0.99781
0.995707
0.995507
0.883101
0.883425
0.884631
0.885017
0.813331
0.813296
0.813562
0.813389
0.744913
1.19533
1.19463
1.1953
1.19633
1.1144
1.11506
1.11342
1.11077
0.999317
0.999291
0.999122
0.99915
0.997736
0.997699
0.995363
0.995363
0.883039
0.882726
0.882721
0.882472
0.883422
0.884993
1.19553
1.11425
0.99969
0.999587
0.883113
0.882788
0.882914
0.813153
0.81301
1.19609
1.19665
1.19482
1.19545
1.19414
1.19459
1.19465
1.19525
1.19499
1.19548
1.10828
1.10738
1.11246
1.11158
1.11471
1.1141
1.11433
1.11356
1.11478
1.114
0.989024
0.98856
0.994227
0.994067
0.997707
0.995277
0.99814
0.998105
0.999277
0.999365
0.886257
0.886655
0.883878
0.884199
0.882846
0.883685
0.883048
0.883364
0.882865
0.883199
0.813689
0.81349
0.813503
0.813465
0.813345
0.813336
0.813318
0.813281
0.813183
0.813055
1.19665
1.19546
1.1946
1.19526
1.19549
1.10711
1.11149
1.11262
1.11352
1.11399
0.987951
0.993807
0.99509
0.997495
0.998043
0.99797
0.999349
0.999234
0.88649
0.884173
0.883102
0.882838
0.883362
0.883044
0.883157
0.883203
0.882878
0.883003
0.813494
0.813699
0.813468
0.813513
0.813459
0.813489
0.813284
0.813328
0.813057
0.744933
0.745222
0.74524
0.745186
2.34715
2.34785
2.34983
2.10016
2.10056
2.101
2.09987
1.89938
1.90043
1.90054
1.90077
3.1662
3.16661
3.1638
3.16274
3.1606
3.16664
3.16383
3.17259
3.17199
2.74293
2.73414
2.73696
2.73835
2.73105
2.73336
2.73054
2.72589
2.7274
2.73812
2.73081
2.73313
2.75073
2.74093
2.74414
2.65457
2.66232
2.65994
2.34715
2.34912
2.34836
2.10016
2.10108
2.10085
1.89937
1.9005
1.90048
2.65855
2.66491
2.66296
2.6647
2.66896
2.66762
2.65825
2.66462
2.66266
2.64973
2.6585
2.65578
2.34785
2.3499
2.34921
2.34943
2.35144
2.35092
2.34717
2.34925
2.34856
2.3444
2.34658
2.34572
2.10057
2.10123
2.10105
2.10064
2.10155
2.1014
2.09987
2.10052
2.10033
2.09853
2.09973
2.09939
1.90042
1.90054
1.9006
1.90036
1.90056
1.9006
1.90079
1.90094
1.901
1.90099
1.90242
1.90248
1.73742
1.73553
1.73473
1.73436
1.73325
1.73306
1.73375
1.73373
1.59073
1.59095
1.58997
1.73374
1.73343
1.73362
1.73331
1.73339
1.73311
1.73441
1.73407
1.73425
1.73565
1.73627
1.73642
1.59043
1.59024
1.59037
1.59048
1.59026
1.59001
1.59098
1.59076
1.59089
1.59176
1.59234
1.59243
1.46573
1.46587
1.46585
1.46591
1.46607
1.4662
1.46622
1.46678
1.35565
1.35643
1.35665
1.35724
1.35585
1.35664
1.35516
1.35598
1.73798
1.73934
1.73956
1.73553
1.73527
1.73546
1.73472
1.73448
1.73461
1.73432
1.734
1.73418
1.73324
1.73365
1.7338
1.73305
1.73348
1.73362
1.59238
1.59302
1.5917
1.59146
1.59119
1.59096
1.59093
1.59073
1.58997
1.5904
1.5905
1.58979
1.59023
1.59033
1.46649
1.46705
1.46649
1.46661
1.46647
1.46626
1.46605
1.46619
1.46539
1.46585
1.46527
1.46573
1.35539
1.35621
1.35615
1.35694
1.35694
1.35753
1.35584
1.35663
1.35534
1.35609
1.35528
1.35602
1.90068
1.89944
1.90068
1.90082
1.89943
1.90056
2.75042
2.73778
2.64926
2.65777
2.66425
2.34256
2.34602
2.3491
2.34722
2.34696
2.0946
2.09802
2.09924
2.09997
2.09997
1.90461
1.90213
1.90072
3.17261
3.17201
3.16669
3.16387
3.1628
3.16666
3.16622
2.75043
2.74061
2.74383
2.73778
2.73048
2.7328
2.7303
2.72565
2.72716
2.73814
2.73083
2.73315
2.74286
2.73407
2.73689
2.64927
2.65804
2.65531
2.65779
2.66418
2.66222
2.66426
2.66853
2.66719
2.65826
2.66464
2.66268
2.65448
2.66223
2.65985
2.34203
2.34363
2.34273
2.34604
2.34809
2.3474
2.34913
2.35077
2.35024
2.34724
2.3493
2.34862
2.34696
2.34894
2.34818
2.09289
2.09405
2.09746
2.09766
2.09895
2.09908
2.09998
2.10063
2.09998
2.10091
1.90651
1.90805
1.90275
1.9034
1.90178
1.90219
2.09309
2.09739
2.09892
2.10045
2.10069
1.90875
1.90355
1.90225
1.90088
1.90054
0.813298
3.16545
3.16503
3.16665
3.16145
3.16288
3.16506
3.16668
3.17332
3.17154
2.74381
2.73912
2.73101
2.73889
2.75167
3.17334
3.1651
3.17156
3.17353
3.16672
3.16646
2.75136
2.74883
2.73711
2.73857
2.73655
2.72801
2.73078
2.72929
2.72399
2.73891
2.73688
2.72834
2.74374
2.74138
2.73103
2.64828
2.65074
2.66083
2.65278
2.6571
2.65896
2.66627
2.66048
2.66382
2.66535
2.67033
2.66602
2.65756
2.65941
2.66669
2.66091
2.65362
2.65585
2.34104
2.34078
2.34343
2.34079
2.33998
2.34579
2.34621
2.34863
2.34657
2.34545
2.34901
2.34944
2.3503
2.34879
2.34895
2.34709
2.34759
2.35008
2.34805
2.34703
2.3469
2.34717
2.08862
2.08972
2.0914
2.08971
2.08523
2.09635
2.09617
2.0967
2.09597
2.09527
2.09832
2.10015
2.10074
2.09803
2.09763
2.09986
2.10005
2.10071
2.10017
2.09973
2.0998
2.10022
1.90998
1.91096
1.91096
1.91173
1.91286
1.90378
1.90441
1.90451
1.90487
1.90485
1.90242
1.901
1.9009
1.9011
1.90117
1.90063
1.90087
1.90082
1.90099
1.90073
1.89872
1.9
2.6647
2.65768
2.34981
2.34758
2.10112
2.10046
1.90043
1.90037
3.16683
3.16341
3.16639
3.16223
3.16249
3.15957
3.16206
3.16642
3.16225
3.16591
3.1735
3.16993
3.17381
2.74145
2.7311
2.73708
2.72855
2.72976
2.72406
2.72855
2.73102
2.73686
2.72832
2.73517
2.73916
2.74915
2.73745
2.74693
2.75199
2.66695
2.66118
2.67061
2.66664
2.66429
2.66668
2.6609
2.65731
2.66137
2.65335
2.6485
2.65371
2.65595
2.34709
2.34735
2.09997
2.10039
1.89866
1.89994
2.66479
2.65777
2.65783
2.65968
2.66424
2.66544
2.65754
2.6594
2.64881
2.65129
2.34691
2.34999
2.34776
2.34709
2.34767
2.34817
2.35066
2.34864
2.34762
2.3493
2.35012
2.35159
2.35007
2.34965
2.34702
2.34753
2.35004
2.348
2.34697
2.34433
2.34452
2.34744
2.34489
2.34416
2.09972
2.10129
2.10063
2.09989
2.10049
2.10071
2.10141
2.10087
2.10045
2.10096
2.10112
2.10171
2.10075
2.10043
2.09971
2.09987
2.10055
2.09997
2.09949
2.09786
2.09841
2.09952
2.09857
2.09701
1.89835
1.90037
1.90031
1.89829
1.90032
1.90052
1.90042
1.90059
1.90029
1.9006
1.90033
1.90038
1.90061
1.90072
1.90068
1.9008
1.9008
1.90106
1.901
1.9012
1.90096
1.90132
1.90065
1.90223
1.90282
1.90285
1.90099
1.90315
1.19475
1.19416
1.19471
1.1958
1.11512
1.11559
1.11412
1.11163
0.999279
0.999127
0.997665
0.995316
0.883067
0.882743
1.19505
1.11502
0.999583
0.883141
1.19604
1.19483
1.19422
1.19467
1.195
1.10854
1.11219
1.11456
1.11421
1.11476
0.988734
0.988729
0.993833
0.993776
0.994919
0.997955
0.999228
0.886047