/*--------------------------------*- C++ -*----------------------------------*\
  =========                 |
  \\      /  F ield         | OpenFOAM: The Open Source CFD Toolbox
   \\    /   O peration     | Website:  https://openfoam.org
    \\  /    A nd           | Version:  8
     \\/     M anipulation  |
\*---------------------------------------------------------------------------*/
FoamFile
{
    version     2.0;
    format      ascii;
    class       volScalarField;
    location    "0";
    object      p;
}
// * * * * * * * * * * * * * * * * * * * * * * * * * * * * * * * * * * * * * //

dimensions      [0 2 -2 0 0 0 0];

internalField   nonuniform List<scalar> 
267833
(
0.000590715
0.000568628
0.000563768
0.000538637
0.000518469
0.000588778
0.000565917
0.000561542
0.000536328
0.000516768
0.000599999
0.000577014
0.000570864
0.000542491
0.00052021
0.000502077
0.000596687
0.000572675
0.000567662
0.000539726
0.000518342
0.000500449
0.000595678
0.000569776
0.000567294
0.000539172
0.000518458
0.00050054
0.000592542
0.000569812
0.000565128
0.00053917
0.000518706
0.000500985
0.000614065
0.000578559
0.0005724
0.000541473
0.000520994
0.000502932
0.000601651
0.000570993
0.000566073
0.000537488
0.000518115
0.000500522
0.000599851
0.000569634
0.000563794
0.000536895
0.000517694
0.000500039
0.000592449
0.000567555
0.00056324
0.000537124
0.000517677
0.000500239
0.000627308
0.000576885
0.000570606
0.000537202
0.000519426
0.000502469
0.000604307
0.000568783
0.00056372
0.000534514
0.000516853
0.000500026
0.000602036
0.000566753
0.000562933
0.000535989
0.000516948
0.000499617
0.000592487
0.000566598
0.000562221
0.000535643
0.00051673
0.000499754
0.000501065
0.000518411
0.000501115
0.000518512
0.000500901
0.00051848
0.000500566
0.000518821
0.000501096
0.000518445
0.000501114
0.000499604
0.000587515
0.000565151
0.000560847
0.000535963
0.000516485
0.000499458
0.000588378
0.000565655
0.000561563
0.000536332
0.000516714
0.000499474
0.000591617
0.000567164
0.000562007
0.000536581
0.000516894
0.000499358
0.000592776
0.000567827
0.000563583
0.000537488
0.00051797
0.000500467
0.000597711
0.000569318
0.00056344
0.00053626
0.000517317
0.000500483
0.000479503
0.000461121
0.000479525
0.000460869
0.000479471
0.000478925
0.000478752
0.000460604
0.000479024
0.000460459
0.00047907
0.00047848
0.000479166
0.000460083
0.000455824
0.000478714
0.000459735
0.000456357
0.000478794
0.00046026
0.000457435
0.000479302
0.000460549
0.000457209
0.000479368
0.000460919
0.000457373
0.000479561
0.000461219
0.000457695
0.000479159
0.000459142
0.000478333
0.000458791
0.000478646
0.000458765
0.000478701
0.000459824
0.00047858
0.000460282
0.000478757
0.000460674
0.000478574
0.000458528
0.000477788
0.000458334
0.000477848
0.000459295
0.000478223
0.000459502
0.000478069
0.000459998
0.000460428
0.000497988
0.000497278
0.000497438
0.000497774
0.000498885
0.00049756
0.00049749
0.000497297
0.000498316
0.000496963
0.000496987
0.000496712
0.000498022
0.000497863
0.000497177
0.000496682
0.000497498
0.000497558
0.000496873
0.000497612
0.000497688
0.000496605
0.000496525
0.000497716
0.000495923
0.000497511
0.000480886
0.000477596
0.000465286
0.000460417
0.000456883
0.000456071
0.000494914
0.00047867
0.000475699
0.000464011
0.000459557
0.000456267
0.000493957
0.000477877
0.000475235
0.000463628
0.000457281
0.000456089
0.000485137
0.00047175
0.000469038
0.000459917
0.000456846
0.000454383
0.000472017
0.000465123
0.000462532
0.000456894
0.000454767
0.00045297
0.000532268
0.000512162
0.000507413
0.000490047
0.000479489
0.000471172
0.000469167
0.000530482
0.000511139
0.000506753
0.000489616
0.000479144
0.000470767
0.000527959
0.000510346
0.000504975
0.000489344
0.000478253
0.000470453
0.000527404
0.000508505
0.000504202
0.000487917
0.000478099
0.00047006
0.000525
0.000506663
0.000501509
0.000486414
0.000477458
0.000470005
0.000482611
0.000555933
0.000536152
0.000532234
0.000512045
0.000497382
0.000484712
0.000555287
0.000535766
0.000532321
0.000511543
0.000497247
0.000484487
0.000555104
0.000535368
0.000531457
0.000511425
0.000496942
0.000484399
0.000553593
0.000535378
0.000530448
0.000511057
0.00049681
0.00048455
0.000451389
0.000450829
0.000448673
0.000448625
0.000449653
0.000449697
0.000469524
0.000461621
0.000459633
0.0004555
0.000454545
0.000452937
0.000483819
0.000470953
0.000468621
0.000456729
0.000457221
0.000454644
0.000485861
0.000472282
0.000469698
0.000460694
0.000457462
0.000454819
0.000454203
0.000494475
0.000478601
0.000475435
0.000464016
0.000459643
0.000456395
0.000455632
0.000520909
0.000502197
0.000497014
0.000483007
0.000475507
0.000468964
0.000523324
0.000504804
0.000500682
0.000485827
0.000477153
0.000469665
0.000524018
0.000507793
0.00050414
0.00048787
0.000478155
0.000469991
0.000527803
0.000508839
0.000504583
0.000488287
0.000478388
0.000470283
0.000468501
0.000531319
0.00051134
0.000506635
0.000489537
0.000479186
0.000470979
0.000469001
0.00048253
0.000449335
0.000452368
0.00045408
0.000467091
0.000459538
0.000451698
0.00044957
0.000467942
0.00045971
0.000451486
0.000449713
0.000468121
0.000459853
0.000451289
0.000449758
0.00045989
0.00045133
0.000449514
0.000481324
0.000469117
0.000456953
0.000454288
0.000481931
0.000469383
0.000456917
0.000454786
0.000482094
0.000469603
0.00045686
0.000454989
0.000482336
0.00046965
0.000457052
0.000454901
0.000459637
0.000459635
0.000459751
0.00045966
0.000459623
0.000460155
0.000451368
0.000449356
0.000469809
0.000457176
0.000454852
0.000522493
0.000504467
0.000501004
0.000486759
0.000518762
0.000501317
0.000500709
0.000486541
0.00051772
0.000500992
0.000497742
0.000485267
0.000513326
0.000498412
0.000494956
0.000484659
0.000507018
0.000490187
0.000487168
0.000475467
0.00050259
0.000489547
0.000486915
0.000474318
0.000501156
0.00048584
0.000483067
0.000473982
0.000494612
0.00048149
0.000478706
0.000473482
0.000452408
0.000454247
0.000455035
0.00046828
0.000455741
0.00045407
0.000451051
0.000453836
0.000455139
0.000465124
0.000446805
0.000452648
0.000448641
0.000453651
0.000455194
0.000450803
0.000445542
0.000444845
0.000448841
0.000454503
0.00045678
0.000431374
0.000438539
0.000440473
0.000452712
0.000460707
0.000463152
0.000437467
0.000443749
0.00044695
0.000436139
0.000429788
0.000429209
0.000434385
0.000442131
0.000446126
0.000401055
0.000412284
0.000413913
0.00043373
0.000441586
0.000445856
0.000388693
0.000410203
0.000411896
0.000428962
0.000437497
0.000442637
0.000303772
0.000381732
0.000393654
0.000434386
0.000441233
0.000444107
0.000436328
0.000440108
0.000432219
0.000438459
0.000441484
0.000430724
0.000423607
0.000423157
0.000428471
0.000436051
0.000439965
0.000421861
0.000402491
0.000405037
0.000426749
0.000434663
0.00043928
0.000374133
0.000399191
0.000401886
0.000420635
0.000428752
0.000433833
0.000293069
0.000363892
0.000381963
0.000424972
0.000429634
0.000432012
0.00048561
0.000522965
0.000504565
0.000500849
0.000486643
0.000524483
0.000505694
0.000501882
0.000487135
0.000472466
0.000470658
0.000477787
0.000473264
0.000483084
0.000474381
0.000501848
0.000486365
0.000483666
0.000474383
0.000506994
0.000490221
0.00048698
0.000475473
0.00050888
0.00049165
0.000488295
0.000476006
0.000397971
0.000418954
0.000421752
0.000446748
0.000460764
0.000465203
0.000426325
0.000435104
0.000436925
0.000452779
0.000462011
0.000464652
0.000448243
0.000445526
0.000438908
0.000450243
0.000455804
0.000463429
0.000453516
0.000447336
0.000446806
0.000449617
0.000454438
0.000456637
0.000468187
0.000456005
0.000454208
0.000451293
0.000454093
0.000455399
0.00047332
0.000459408
0.000457222
1.85548e-05
0.000257568
0.000283462
0.00039558
0.000421441
0.000432709
0.000268141
0.000376311
0.000386813
0.000435067
0.000440682
0.000443756
0.000297672
0.000382962
0.000392371
0.000434959
0.000439517
0.000443945
0.000396796
0.000413865
0.000415859
0.000430823
0.000438614
0.000443653
0.000435619
0.000430328
0.000429704
0.000435014
0.000442429
0.00044643
0.000446724
0.000436973
0.000435622
1.42123e-05
0.000217559
0.000261288
0.000377656
0.000403222
0.000415621
0.000234436
0.000348486
0.000364051
0.000418983
0.000425373
0.000429161
0.000361474
0.00035999
0.000373731
0.000424414
0.000429543
0.000430507
0.000386531
0.00040405
0.000407136
0.00042286
0.00043005
0.000434799
0.000430369
0.000424269
0.000423735
0.000429076
0.000442702
0.000431748
0.000430295
0.000500824
0.00050397
0.000501092
0.000492006
0.000516019
0.000509708
0.000507249
0.000495289
0.000525436
0.000511875
0.000509123
0.000494954
0.000527531
0.000512703
0.000509529
0.000495148
0.000507547
0.000492568
0.000489139
0.000480801
0.00051143
0.000496387
0.00049363
0.00048411
0.000512717
0.000497071
0.000497605
0.00048545
0.000518278
0.000501426
0.000498244
0.000487898
0.000475008
0.000493493
0.000479992
0.000495189
0.000480828
0.000397701
0.000469945
0.000481817
0.000509421
0.000485027
0.000513876
0.000516182
0.000515301
0.000533335
0.000515479
0.000511709
0.000496091
0.000535219
0.000516632
0.000512744
0.000588064
0.00056512
0.000560688
0.000535004
0.00051574
0.000584813
0.00056104
0.000555656
0.000529077
0.00051034
0.000578334
0.000557079
0.000552562
0.000529565
0.000575109
0.000554753
0.000550272
0.000549807
0.000529826
0.000525299
0.000506816
0.000554137
0.000532926
0.00052831
0.000541073
0.000524246
0.000520948
0.000506524
0.000544091
0.00052575
0.000522121
0.000721157
0.000611173
0.000592134
0.000529067
0.000511264
0.000497351
0.000633428
0.00056818
0.00055869
0.000520666
0.000507363
0.000494475
0.000598066
0.000560856
0.000555662
0.000526239
0.000507726
0.000494897
0.000593529
0.000562762
0.000556865
0.000528388
0.000510598
0.00049527
0.00081423
0.000686187
0.000638398
0.000565516
0.000523999
0.000502252
0.000690304
0.000606458
0.000592993
0.000539702
0.000515166
0.00049772
0.000643719
0.000567072
0.000581238
0.000532115
0.000513778
0.000496147
0.000593063
0.000564272
0.000559089
0.000532026
0.000512461
0.000496299
0.000510426
0.000268631
0.000376562
0.00041816
0.000460143
0.000416951
0.000469511
0.000475797
0.000492916
0.000468555
0.000515619
0.00051277
0.000503289
0.000530015
0.000519901
0.000516927
0.000503623
0.000495791
0.000496842
0.000522211
0.000516025
0.000512685
0.00052973
0.000521084
0.000519139
0.000507086
0.000533203
0.000515365
0.000511847
0.000496243
0.00053199
0.000514578
0.000511536
0.000495838
0.000526886
0.000512204
0.000508932
0.000494562
0.000519001
0.000511656
0.000508469
0.000495465
0.000496611
0.000492716
0.000491914
0.000586612
0.000564351
0.000559989
0.00053476
0.000515546
0.000498939
0.000587724
0.000564932
0.000560792
0.000535168
0.000515802
0.000498967
0.000591604
0.000566441
0.000561355
0.000536156
0.000516879
0.000498917
0.000592759
0.000566984
0.000562685
0.000536119
0.000517036
0.000499985
0.000600492
0.000566792
0.000560732
0.000532794
0.000515775
0.000499872
0.000582519
0.000560001
0.000554885
0.00052916
0.000510499
0.00058415
0.0005609
0.000555929
0.000529567
0.000510578
0.000494941
0.000585422
0.00056056
0.000556273
0.000529586
0.000510985
0.000494678
0.000594728
0.000562611
0.000556861
0.000528343
0.000510781
0.000495494
0.000615804
0.000568708
0.000557664
0.000522724
0.000508097
0.000494955
0.000527785
0.000509547
0.000576796
0.000556485
0.000552233
0.000528758
0.000510232
0.000494782
0.000588738
0.00056262
0.000554474
0.000530227
0.000510984
0.000494751
0.000598702
0.000565696
0.00056094
0.000533008
0.000513094
0.000496658
0.000493287
0.000626152
0.00058148
0.000566635
0.000534169
0.000512803
0.000496956
0.000493003
0.000509084
0.000496945
0.000550452
0.000530168
0.000525997
0.000508019
0.000496124
0.000485221
0.000546542
0.000521206
0.000518497
0.000506459
0.000495158
0.000484616
0.000523432
0.000518277
0.000514834
0.000502614
0.000492638
0.000483045
0.000481318
0.000487941
0.000499219
0.000505207
0.000499915
0.000492413
0.000483344
0.000481058
0.000506549
0.000541255
0.000524099
0.000520993
0.000506088
0.000539258
0.00052048
0.000518658
0.000505956
0.000528036
0.000521296
0.000519196
0.000507254
0.000504365
0.000514825
0.000517061
0.000513966
0.000499051
0.000494978
0.000495177
0.000495038
0.000494596
0.000485333
0.00048591
0.000478307
0.000460377
0.000478453
0.000478634
0.00047784
0.000459958
0.000460027
0.000458287
0.000458167
0.000458047
0.000478282
0.000455423
0.000455481
0.000455662
0.000457558
0.000475534
0.000474453
0.000475101
0.000475336
0.000478206
0.000456879
0.000476406
0.000457293
0.000476187
0.000457493
0.000476279
0.000459082
0.00045965
0.000461991
0.000461513
0.00046117
0.00045962
0.000458734
0.000494349
0.000492057
0.000492489
0.000492501
0.000496785
0.000494423
0.0004939
0.00049289
0.000467516
0.000470127
0.000470571
0.000470608
0.000496071
0.000496434
0.000496978
0.000496121
0.000475765
0.00049216
0.000475726
0.000492302
0.000475722
0.000475771
0.000474963
0.000476082
0.000475982
0.000476463
0.000476713
0.000476813
0.00047073
0.000470781
0.000470591
0.000470028
0.000469659
0.000491737
0.000492954
0.000483121
0.000481927
0.000495885
0.000491958
0.000475404
0.000492134
0.000491782
0.000476093
0.000491457
0.000470715
0.000483477
0.00045556
0.000468931
0.000442414
0.000442556
0.000442508
0.000442068
0.000447907
0.000445851
0.000445278
0.000449682
0.000446712
0.000446129
0.000449921
0.000446753
0.000446371
0.000450724
0.000446983
0.000446298
0.00045152
0.000447189
0.000446348
0.000451687
0.000447104
0.000446222
0.000460216
0.000451332
0.0004493
0.000469855
0.000457186
0.000454855
0.000459623
0.000451365
0.000446902
0.0004461
0.000455443
0.000451272
0.000446495
0.000446144
0.000453756
0.00045029
0.000446468
0.000445755
0.000452262
0.000449468
0.000446249
0.000460081
0.000451259
0.000449387
0.000468882
0.000460004
0.00045117
0.000449603
0.000468269
0.000459683
0.000451133
0.000449311
0.000467863
0.000459561
0.000451289
0.000449071
0.000482553
0.00046978
0.000457089
0.000454921
0.000482591
0.000469605
0.000456907
0.000455083
0.000482253
0.000469574
0.000456981
0.000454829
0.000481864
0.000469453
0.000457108
0.000454406
0.000459663
0.000479383
0.000473197
0.000478878
0.000473055
0.000478937
0.000473261
0.000479599
0.000474421
0.000471148
0.000467448
0.000471194
0.00046787
0.000471302
0.000468099
0.000473108
0.000470633
0.00045562
0.000455137
0.000446732
0.000447139
0.000440745
0.000441922
0.000477934
0.000473865
0.000472746
0.000479496
0.00047447
0.000473339
0.000479409
0.000474214
0.000472502
0.000479111
0.000473418
0.000472241
0.000479466
0.000473419
0.000472092
0.000479577
0.000473304
0.000471919
0.00047305
0.000471535
0.00047077
0.000473422
0.000470868
0.000470136
0.000471819
0.000470549
0.000469854
0.000471457
0.000468206
0.000467401
0.000471247
0.00046762
0.000466715
0.00047125
0.000467375
0.000466421
0.000465923
0.000464996
0.000458306
0.000456985
0.000433373
0.000443616
0.000444338
0.00044415
0.000418652
0.000429632
0.000431177
0.000435874
0.000467714
0.000461178
0.00046828
0.000460625
0.000467581
0.000459018
0.000467434
0.000458782
0.000467115
0.000457833
0.000466815
0.000457243
0.000466919
0.000457291
0.000466956
0.000457266
0.000466983
0.000457889
0.000467815
0.000459347
0.000466853
0.000460164
0.000458482
0.00046681
0.000459739
0.000458296
0.000465609
0.000458139
0.000465305
0.000457847
0.000464821
0.000456889
0.000464397
0.000456294
0.00046449
0.00045644
0.00046484
0.000457006
0.000465043
0.000457304
0.00046655
0.000458902
0.000466135
0.000460877
0.000459543
0.00046526
0.000459797
0.000458694
0.000462808
0.000457158
0.000456168
0.000462377
0.000456785
0.000461435
0.00045551
0.000460933
0.000454809
0.000461193
0.000455085
0.000461972
0.00045518
0.000456389
0.000459163
0.000463488
0.000462112
0.000456377
0.000455354
0.000453332
0.000461222
0.00045401
0.000453846
0.000450993
0.000447642
0.000463218
0.00044694
0.0004556
0.000445882
0.00044586
0.000471939
0.000472022
0.000472095
0.000473079
0.000466596
0.000467178
0.000467324
0.000462224
0.000469737
0.000464833
0.000454861
0.000453055
0.000452594
0.000453937
0.000451827
0.000455317
0.000454386
0.000452311
0.000456311
0.000454608
0.000452578
0.000457247
0.000457042
0.000455213
0.000463642
0.000463417
0.000460835
0.000448499
0.00044948
0.000449508
0.000448073
0.000448399
0.000448325
0.000446382
0.000447796
0.000448281
0.000443504
0.000447676
0.00044824
0.000443109
0.000446543
0.000448322
0.000443984
0.000447836
0.000450183
0.000443157
0.000445049
0.000445338
0.000443313
0.000444444
0.000444581
0.000440534
0.000442636
0.000444104
0.000444272
0.000439555
0.000442114
0.000443386
0.000434807
0.000439648
0.000443366
0.000432643
0.000438511
0.00044358
0.000466452
0.000464379
0.000464779
0.000462729
0.000463151
0.000456851
0.000456933
0.000455641
0.000443766
0.0004521
0.000449068
0.000453585
0.000449287
0.000453431
0.000447973
0.000450679
0.000432467
0.000444513
0.000437721
0.000445544
0.000440339
0.000445277
0.000440861
0.000445116
0.000459263
0.000459317
0.00045991
0.000460316
0.000462093
0.000465985
0.000464775
0.000464129
0.000461587
0.00046008
0.000482542
0.000475821
0.000474453
0.000484626
0.00047693
0.00047564
0.000484864
0.000476904
0.000475897
0.000485197
0.00047718
0.000475787
0.000486275
0.000477412
0.000476205
0.00047578
0.00048914
0.000481304
0.000479557
0.000492777
0.000482929
0.000481442
0.000493301
0.000483449
0.000481787
0.000496239
0.000484867
0.000482095
0.000474111
0.000498934
0.000486094
0.000483754
0.000473911
0.000495666
0.000485568
0.000482716
0.000473406
0.00049498
0.000484371
0.000482315
0.000471896
0.000495095
0.000486316
0.000477831
0.000476226
0.000485902
0.000477502
0.000475703
0.000484806
0.000476923
0.000475484
0.000485317
0.00047761
0.000478013
0.000476287
0.000486606
0.000478102
0.000470815
0.000470875
0.000470965
0.000471451
0.000473016
0.000494943
0.000494827
0.000484254
0.00048218
0.000494802
0.000484028
0.000482055
0.000494894
0.000484193
0.000482162
0.000498149
0.000485927
0.000483105
0.00047593
0.000483044
0.000484583
0.000482372
0.00047134
0.000484346
0.000482132
0.0004763
0.000442115
0.00044164
0.00044156
0.000441137
0.000442367
0.000442558
0.000442617
0.000442563
0.000443502
0.000443383
0.000443427
0.00044339
0.000442515
0.000443362
0.000443349
0.000459754
0.000459646
0.000459686
0.000427247
0.000427182
0.000404938
0.000405231
0.000405182
0.000404937
0.000404276
0.000404582
0.000405396
0.000405328
0.00040434
0.000404341
0.000405273
0.000437326
0.000417592
0.000398891
0.000437832
0.000418767
0.00040048
0.000438935
0.000420346
0.000402378
0.000439094
0.00042072
0.000402923
0.000439747
0.000421718
0.000404239
0.000435158
0.000412915
0.000393227
0.000436364
0.000415973
0.000397447
0.00043667
0.000419201
0.000401239
0.000438457
0.000419794
0.000402022
0.000439495
0.000421562
0.000404131
0.000434127
0.00041023
0.00039148
0.000435807
0.000414974
0.000397279
0.000438018
0.000415731
0.000398019
0.000438197
0.00041952
0.000402102
0.000439348
0.000421507
0.000404242
0.000422334
0.000457869
0.000458065
0.000460917
0.000457649
0.000460527
0.000456458
0.000422509
0.000457719
0.000440184
0.000422538
0.000457977
0.000440221
0.000422448
0.000460511
0.000457564
0.000439736
0.000421794
0.0004599
0.000456215
0.000438563
0.000420949
0.000440062
0.000422555
0.000457531
0.00044011
0.000422589
0.000457813
0.00044016
0.000421993
0.000457366
0.000439654
0.000421828
0.000455888
0.000438343
0.0004211
0.000440205
0.000455089
0.000455649
0.000455997
0.000456787
0.000457147
0.000457577
0.00044015
0.00045459
0.00045527
0.000456697
0.00045652
0.000456917
0.000457377
0.000422803
0.000406361
0.000423
0.000406365
0.000422889
0.000406025
0.000422476
0.00040592
0.000422398
0.000408609
0.000424832
0.00040809
0.000425448
0.00040873
0.000425206
0.000408371
0.000425207
0.000408726
0.000425147
0.000410837
0.000431106
0.000418149
0.000430472
0.000417333
0.000430473
0.000417559
0.000431054
0.000418027
0.00043111
0.000416917
0.000444896
0.000436086
0.000434598
0.000422748
0.000386615
0.000359996
0.000403503
0.00038546
0.000405825
0.000399621
0.000417055
0.000400359
0.00042117
0.000404581
0.000342699
0.000322715
0.000381154
0.000350686
0.000393929
0.00038387
0.00041352
0.000392684
0.000422001
0.000404227
0.000524284
0.000515582
0.000481739
0.000483223
0.000453474
0.000445413
0.000460314
0.000460273
0.000459497
0.000459046
0.000455819
0.000439644
0.000458992
0.000456028
0.000439752
0.000458692
0.000456311
0.000439427
0.000458656
0.000455673
0.000439172
0.000457751
0.000454024
0.000437663
0.000456616
0.000441466
0.00045696
0.000441628
0.000460014
0.000457323
0.00044169
0.000460076
0.0004569
0.000441099
0.000459464
0.000455146
0.000440039
0.000455786
0.000443668
0.000455833
0.000443417
0.000456083
0.000443978
0.000458274
0.000456076
0.000444255
0.000459158
0.000456931
0.000445382
0.000450723
0.000427315
0.000452062
0.000431446
0.000454407
0.000435926
0.000454367
0.000436553
0.000458463
0.000455192
0.000438633
0.000450168
0.000416077
0.000452863
0.000427089
0.000455624
0.000429016
0.000455486
0.000437232
0.00045619
0.000440372
0.000462552
0.000472308
0.000460791
0.000460628
0.000458432
0.000450776
0.00045792
0.00044906
0.000456386
0.00044511
0.00044164
0.000441291
0.000441229
0.00044137
0.000441402
0.000445461
0.000441644
0.000473261
0.00046967
0.000456826
0.000444312
0.000453978
0.000441906
0.000441168
0.000427826
0.000447195
0.000435872
0.000422695
0.000445816
0.000433727
0.000420416
0.000445761
0.000433557
0.000420301
0.000445976
0.000433756
0.000420451
0.000447081
0.000434838
0.000421516
0.000449045
0.000435604
0.000419983
0.000448424
0.000438126
0.000444336
0.000432539
0.000439754
0.000431323
0.000438836
0.000426836
0.0004361
0.000424062
0.000445608
0.000434677
0.000422489
0.000445637
0.000434689
0.000422417
0.000445789
0.000435722
0.00042362
0.000446663
0.000436084
0.000424074
0.000448308
0.000437653
0.000424706
0.000444121
0.000434201
0.000442744
0.000432017
0.000440193
0.000431369
0.000439572
0.000428657
0.000437661
0.000426607
0.00043653
0.000425377
0.000436622
0.000425342
0.000436798
0.000425386
0.00043796
0.000426782
0.000439835
0.000428474
0.000436027
0.000434923
0.000434461
0.000431993
0.000430047
0.000428823
0.000428826
0.00042991
0.000430357
0.000432751
0.000464377
0.000461599
0.000463148
0.000456822
0.000460387
0.000451251
0.000459699
0.00045018
0.0004578
0.000456914
0.000457137
0.000457496
0.00045815
0.000459447
0.000459646
0.000453357
0.000459151
0.000451617
0.000459118
0.000451172
0.00045717
0.000448382
0.00045593
0.000446586
0.000455275
0.000455468
0.000455714
0.000456138
0.000457309
0.000451766
0.000450982
0.000456824
0.000449047
0.000456371
0.000448566
0.000455185
0.000447158
0.000454551
0.000446306
0.000454831
0.000446405
0.000455111
0.000446586
0.000455722
0.000447536
0.000456983
0.000449244
0.0004535
0.000452522
0.000449871
0.000455716
0.00044939
0.000454274
0.000447749
0.000453537
0.000446827
0.00045391
0.000447082
0.000455092
0.000447264
0.000455224
0.00044858
0.000457724
0.000451227
0.000445856
0.000444944
0.000442191
0.000441694
0.000439776
0.000438655
0.000438814
0.000438955
0.000440376
0.000460235
0.000455108
0.000459126
0.000454909
0.000454067
0.000454189
0.000452894
0.000449322
0.000445586
0.000443498
0.000443742
0.000445831
0.000458115
0.000453223
0.000452502
0.000454361
0.000449221
0.000442932
0.000446556
0.000449802
0.000449785
0.000451309
0.000448183
0.000451829
0.000448588
0.000452113
0.000450736
0.000454713
0.000451552
0.000459888
0.000456037
0.000449423
0.000447503
0.000448207
0.000447322
0.00044832
0.000447982
0.000448405
0.000448138
0.000450213
0.000449966
0.000446427
0.00044482
0.000444726
0.000444175
0.000444875
0.000443879
0.000446078
0.000444628
0.000448474
0.000435494
0.000435502
0.000435553
0.00043125
0.000431372
0.000431441
0.000429807
0.000429728
0.000429706
0.000429693
0.000436231
0.000437035
0.000431768
0.000432241
0.000429811
0.00042996
0.000440937
0.000440794
0.00044248
0.000440776
0.000440935
0.000440934
0.000441199
0.000442486
0.000442539
0.000442487
0.00044236
0.000443363
0.000443401
0.000443377
0.000443571
0.00042716
0.000427124
0.000427114
0.000427108
0.000427178
0.000427538
0.000436931
0.000436999
0.000437325
0.000441221
0.000440867
0.000442577
0.000443941
0.000441121
0.000444075
0.000441605
0.000444595
0.000445588
0.000428528
0.000428579
0.000428615
0.000421283
0.000421303
0.000421645
0.000416542
0.000416462
0.000416504
0.000439637
0.000441537
0.000442589
0.000442867
0.000446753
0.000450349
0.000429889
0.000431217
0.000421922
0.000422887
0.000416676
0.000417186
0.000410793
0.000410741
0.000410778
0.000410858
0.000411438
0.00044839
0.000448079
0.000444331
0.000443385
0.000439364
0.000491283
0.000465436
0.000464085
0.000451754
0.000445024
0.000494627
0.000494179
0.00047076
0.000469789
0.000455303
0.000453706
0.000452686
0.000451537
0.00044671
0.000444574
0.000438622
0.000431474
0.000438031
0.000431407
0.000437827
0.000430683
0.000436951
0.000430509
0.000436073
0.000429332
0.000433521
0.000424079
0.000432769
0.000422999
0.000432562
0.000422708
0.00043197
0.000422122
0.000431483
0.000421602
0.000429933
0.000417238
0.000429988
0.000416868
0.000429893
0.000416691
0.000429895
0.000416789
0.000416677
0.000411235
0.000410848
0.000427187
0.000410836
0.000427192
0.000410924
0.000410871
0.000484331
0.000466492
0.0004651
0.000454022
0.000448392
0.000445361
0.000445021
0.000445937
0.000445977
0.000446885
0.000447525
0.000451601
0.00059301
0.000593018
0.000573426
0.000592166
0.000573464
0.000555932
0.000536309
0.000532113
0.000512034
0.000497433
0.000556205
0.000536569
0.000532366
0.000512226
0.000497563
0.000484937
0.000576599
0.000556398
0.000553469
0.000531198
0.000513226
0.000576662
0.00055646
0.00055353
0.000531246
0.00051326
0.00049671
0.000576602
0.000556316
0.000553509
0.000531187
0.000513189
0.000496625
0.000576594
0.000556157
0.000553565
0.000531157
0.000513033
0.000496518
0.000576413
0.000556132
0.000553325
0.000531037
0.000513081
0.000496553
0.000575424
0.000556639
0.000553166
0.000531362
0.000513508
0.000497117
0.000593008
0.000573439
0.00057168
0.000549394
0.000530119
0.000592995
0.000573423
0.000571663
0.000549384
0.000530116
0.000592997
0.000573395
0.000571683
0.000549385
0.000530101
0.00057333
0.000571706
0.000549393
0.000530072
0.000571716
0.000549407
0.000530105
0.00057138
0.000549008
0.000529546
0.000552705
0.000534315
0.000529334
0.000510008
0.000495992
0.000483963
0.000554162
0.000534382
0.000530481
0.000510643
0.000496413
0.000484056
0.000555036
0.000535003
0.000531569
0.000510807
0.000496461
0.000483942
0.000555199
0.000535445
0.000531543
0.000511527
0.000497035
0.000484476
0.000484848
0.00057526
0.00055644
0.000552964
0.000531159
0.00051334
0.000496997
0.000576214
0.00055592
0.000553115
0.000530862
0.000512963
0.000496483
0.000576245
0.000555794
0.000553205
0.000530865
0.000512917
0.000496463
0.000576436
0.00055615
0.000553345
0.000531058
0.000513101
0.000496571
0.000496689
0.000494703
0.000478312
0.000461941
0.000494618
0.000478018
0.000461488
0.000494736
0.000478055
0.000461435
0.000494703
0.000478071
0.000461516
0.000494737
0.000478112
0.000461564
0.000494756
0.00048955
0.00049036
0.000490398
0.0004904
0.000490432
0.000655105
0.000640451
0.000639276
0.000611209
0.000659756
0.000644776
0.000643782
0.000616099
0.000659822
0.000644731
0.000643768
0.00061613
0.000658036
0.000643032
0.000642032
0.000614971
0.000656726
0.000641533
0.000640501
0.000613768
0.000656246
0.000640939
0.000639907
0.000613299
0.000656628
0.000641453
0.000640444
0.000613781
0.000656758
0.000641572
0.000641928
0.00061499
0.000657814
0.000642958
0.000641967
0.000614987
0.000653116
0.000639026
0.000637843
0.000610502
0.000511334
0.000511299
0.000511243
0.000511282
0.00051072
0.000592189
0.000573492
0.000571408
0.000549019
0.000529526
0.000510687
0.000593056
0.000573474
0.000571764
0.000549432
0.000530092
0.000511247
0.000593049
0.000573372
0.000571748
0.000549403
0.000530061
0.000511221
0.000593029
0.000573435
0.000571724
0.000549409
0.000530103
0.000511277
0.000511326
0.000508908
0.000509796
0.000509849
0.000509827
0.000509836
0.000509843
0.000494684
0.000478053
0.000461501
0.000494818
0.000478387
0.00046199
0.00050985
0.000509871
0.000509832
0.000508942
0.000478122
0.000461565
0.000494753
0.000478098
0.000461522
0.000494787
0.000478083
0.000461464
0.000414044
0.000400146
0.000414122
0.000400063
0.000414302
0.000400226
0.000414335
0.000408869
0.000408891
0.000409065
0.000409001
0.000409173
0.000414636
0.000402738
0.000414626
0.000401825
0.000414811
0.000401647
0.000414504
0.000400915
0.000414199
0.000400445
0.000388582
0.000387564
0.00038727
0.000386393
0.000409187
0.000409107
0.000408958
0.000392501
0.000400248
0.000400381
0.000384953
0.000384798
0.000384807
0.000384827
0.000374937
0.000357368
0.000355364
0.000337341
0.00031879
0.000374554
0.000356797
0.000354969
0.000337206
0.000374511
0.000356769
0.000354785
0.000337141
0.000356327
0.000353862
0.000336583
0.000385211
0.000375249
0.000357703
0.000355604
0.000337467
0.000318859
0.000392266
0.000392141
0.000392166
0.000392156
0.000392313
0.000385694
0.000318764
0.000318828
0.000318731
0.000309577
0.00028993
0.000309686
0.000290396
0.000299589
0.000297559
0.000297531
0.000297182
0.000299738
0.000299921
0.000299686
0.000299775
0.000374313
0.000328859
0.000328332
0.000239617
0.000257979
0.000259544
0.000260176
0.000260519
0.000260731
0.000240172
0.000260951
0.000240399
0.000259562
0.000261387
0.000262016
0.000263344
0.000264083
0.000242645
0.000264427
0.000243001
0.000264343
0.00026393
0.000242713
0.000263362
0.000241793
0.000260956
0.000240012
0.000233731
0.000234761
0.000235422
0.000235428
0.00025559
0.000257399
0.00023725
0.00023772
0.000258653
0.000258282
0.000258368
0.000238111
0.000258533
0.000238278
0.000258687
0.00023815
0.000259103
0.00023796
0.000258315
0.000237785
0.0002571
0.000237299
0.000261072
0.000240198
0.000261135
0.000240208
0.000260543
0.000239677
0.000259013
0.000238919
0.000242748
0.000231934
0.00023321
0.000234175
0.000234261
0.000252968
0.000254642
0.000255212
0.000255475
0.000234617
0.000254366
0.000234785
0.000254733
0.000234802
0.000255224
0.0002349
0.000254942
0.000234957
0.00025442
0.000235216
0.000255591
0.000235784
0.000255815
0.000235987
0.000256049
0.000235955
0.000256296
0.000236002
0.000255799
0.00023572
0.000254988
0.000235574
0.00027477
0.000277984
0.000278533